 Entering Gaussian System, Link 0=g16
 Initial command:
 /share/sw/gaussian/g16_B.01_avx2-enabled/g16/l1.exe "/scratch/hnr2/2615646/Gau-21013.inp" -scrdir="/scratch/hnr2/2615646/"
 Entering Link 1 = /share/sw/gaussian/g16_B.01_avx2-enabled/g16/l1.exe PID=     21014.
  
 Copyright (c) 1988-2017, Gaussian, Inc.  All Rights Reserved.
  
 This is part of the Gaussian(R) 16 program.  It is based on
 the Gaussian(R) 09 system (copyright 2009, Gaussian, Inc.),
 the Gaussian(R) 03 system (copyright 2003, Gaussian, Inc.),
 the Gaussian(R) 98 system (copyright 1998, Gaussian, Inc.),
 the Gaussian(R) 94 system (copyright 1995, Gaussian, Inc.),
 the Gaussian 92(TM) system (copyright 1992, Gaussian, Inc.),
 the Gaussian 90(TM) system (copyright 1990, Gaussian, Inc.),
 the Gaussian 88(TM) system (copyright 1988, Gaussian, Inc.),
 the Gaussian 86(TM) system (copyright 1986, Carnegie Mellon
 University), and the Gaussian 82(TM) system (copyright 1983,
 Carnegie Mellon University). Gaussian is a federally registered
 trademark of Gaussian, Inc.
  
 This software contains proprietary and confidential information,
 including trade secrets, belonging to Gaussian, Inc.
  
 This software is provided under written license and may be
 used, copied, transmitted, or stored only in accord with that
 written license.
  
 The following legend is applicable only to US Government
 contracts under FAR:
  
                    RESTRICTED RIGHTS LEGEND
  
 Use, reproduction and disclosure by the US Government is
 subject to restrictions as set forth in subparagraphs (a)
 and (c) of the Commercial Computer Software - Restricted
 Rights clause in FAR 52.227-19.
  
 Gaussian, Inc.
 340 Quinnipiac St., Bldg. 40, Wallingford CT 06492
  
  
 ---------------------------------------------------------------
 Warning -- This program may not be used in any manner that
 competes with the business of Gaussian, Inc. or will provide
 assistance to any competitor of Gaussian, Inc.  The licensee
 of this program is prohibited from giving any competitor of
 Gaussian, Inc. access to this program.  By using this program,
 the user acknowledges that Gaussian, Inc. is engaged in the
 business of creating and licensing software in the field of
 computational chemistry and represents and warrants to the
 licensee that it is not a competitor of Gaussian, Inc. and that
 it will not use this program in any manner prohibited above.
 ---------------------------------------------------------------
  

 Cite this work as:
 Gaussian 16, Revision B.01,
 M. J. Frisch, G. W. Trucks, H. B. Schlegel, G. E. Scuseria, 
 M. A. Robb, J. R. Cheeseman, G. Scalmani, V. Barone, 
 G. A. Petersson, H. Nakatsuji, X. Li, M. Caricato, A. V. Marenich, 
 J. Bloino, B. G. Janesko, R. Gomperts, B. Mennucci, H. P. Hratchian, 
 J. V. Ortiz, A. F. Izmaylov, J. L. Sonnenberg, D. Williams-Young, 
 F. Ding, F. Lipparini, F. Egidi, J. Goings, B. Peng, A. Petrone, 
 T. Henderson, D. Ranasinghe, V. G. Zakrzewski, J. Gao, N. Rega, 
 G. Zheng, W. Liang, M. Hada, M. Ehara, K. Toyota, R. Fukuda, 
 J. Hasegawa, M. Ishida, T. Nakajima, Y. Honda, O. Kitao, H. Nakai, 
 T. Vreven, K. Throssell, J. A. Montgomery, Jr., J. E. Peralta, 
 F. Ogliaro, M. J. Bearpark, J. J. Heyd, E. N. Brothers, K. N. Kudin, 
 V. N. Staroverov, T. A. Keith, R. Kobayashi, J. Normand, 
 K. Raghavachari, A. P. Rendell, J. C. Burant, S. S. Iyengar, 
 J. Tomasi, M. Cossi, J. M. Millam, M. Klene, C. Adamo, R. Cammi, 
 J. W. Ochterski, R. L. Martin, K. Morokuma, O. Farkas, 
 J. B. Foresman, and D. J. Fox, Gaussian, Inc., Wallingford CT, 2016.
 
 ******************************************
 Gaussian 16:  ES64L-G16RevB.01 20-Dec-2017
                18-Jul-2022 
 ******************************************
 %nprocshared=40
 Will use up to   40 processors via shared memory.
 %mem=60GB
 %oldchk=sim009_type3_coord-5_4-1-0_10C_b1_id81769_step4300.chk
 %chk=sim009_type3_coord-5_4-1-0_10C_b1_id81769_step4300_2.chk
 Copying data from "sim009_type3_coord-5_4-1-0_10C_b1_id81769_step4300.chk" to current chk file "sim009_type3_coord-5_4-1-0_10C_b1_id81769_step4300_2.chk"
 IOpt=  2 FromEx=T IUOpen= 4 IOptOp= 5 NList=   0 IFRang= 0 IUIn= 4 IUOut= 2.
 ----------------------------------------------------------------------
 # geom=check scrf=(solvent=water,iefpcm,externaliteration,1stvac,read)
  rb3lyp/aug-cc-pvdz empiricaldispersion=gd3 scf=(maxcycle=500) int(Acc
 2E=11,grid=ultrafine)
 ----------------------------------------------------------------------
 1/28=-2,29=2,30=1,38=1,70=10002203,72=1,125=1000,172=1/1,24;
 2/12=2,40=1/2;
 3/5=16,7=10,11=2,14=-4,25=1,27=11,30=1,70=1000100,72=1,74=-5,75=-5,116=1,124=31/1,2,3;
 4/9=2/1;
 5/5=2,7=500,17=20,38=5,53=1,87=11/2;
 6/7=2,8=2,9=2,10=2,28=1,87=11/1;
 1/28=-2,70=10002205,72=1/24(1);
 99/5=1,9=1/99;
 3/5=16,7=10,11=2,14=-2,25=1,27=11,30=1,70=100,72=1,74=-5,75=-5,116=1,124=31/1,2,3;
 4/5=5,9=2,16=3,69=1/1;
 5/5=2,7=500,17=20,38=5,53=1,87=11/2;
 6/7=2,8=2,9=2,10=2,28=1,87=11/1;
 1/28=-2,70=10002205,72=1/24(-4);
 99/5=1,9=1/99;
 -----------------------------------------------------------
 MD frame sim009_type3_coord-5_4-1-0_10C_b1_id81769_step4300
 -----------------------------------------------------------
 Structure from the checkpoint file:  "sim009_type3_coord-5_4-1-0_10C_b1_id81769_step4300_2.chk"
 Charge =  1 Multiplicity = 1
 No Z-Matrix found in chk file; cartesian coordinates used.
  O                                                -0.809762984767      1.250898339631     -1.747807593859
  H                                                -0.883845069145      1.370262073561     -2.702486499034
  H                                                -0.789940855341      2.140159500063     -1.364007587640
  O                                                 2.207691048170     -0.567815863170      1.132406553287
  H                                                -1.117631086319      2.002619034355      1.329010573187
  O                                                -0.284273974707      2.209136979969      0.882011448435
  H                                                 0.095862915162      2.957523307005      1.358636853252
  H                                                 2.581615954502     -1.393641974771      0.798290914463
  H                                                 2.776998344093     -0.292524091102      1.860873732530
  O                                                 0.995407400245     -2.020730083999     -1.121093826732
  H                                                 0.545699133325     -2.869778629023     -1.016786171045
  H                                                 1.442458912511     -2.084713833486     -1.975541483221
  H                                                -2.660770430776     -0.633517243517      0.990353599904
  O                                                -1.998402058687     -0.109364717541      0.523352100725
  H                                                -2.404825712110      0.154366607868     -0.314930592559
  Na                                                0.318198463842      0.033490594159     -0.020862021691
 Recover connectivity data from disk.
 SC-PCM: Self-consistent PCM reaction field calculation.
 Using the following non-standard input for PCM:
 dis
 cav
 rep
 --- end of non-standard input.
 ------------------------------------------------------------------------------
 Polarizable Continuum Model (PCM)
 =================================
 Model                : PCM.
 Atomic radii         : UFF (Universal Force Field).
 Polarization charges : Total charges.
 Charge compensation  : None.
 Solution method      : On-the-fly selection.
 Cavity type          : Scaled VdW (van der Waals Surface) (Alpha=1.100).
 Cavity algorithm     : GePol (No added spheres)
                        Default sphere list used, NSphG=   16.
                        Lebedev-Laikov grids with approx.  5.0 points / Ang**2.
                        Smoothing algorithm: York/Karplus (Gamma=1.0000).
                        Polarization charges: spherical gaussians, with
                                              point-specific exponents (IZeta= 3).
                        Self-potential: point-specific (ISelfS= 7).
                        Self-field    : sphere-specific E.n sum rule (ISelfD= 2).
 Solvent              : Water, Eps=  78.355300 Eps(inf)=   1.777849
 ------------------------------------------------------------------------------
 Spheres list:
 ISph  on   Nord     Re0    Alpha      Xe            Ye            Ze
    1   O      1    1.7500  1.100     -0.809763      1.250898     -1.747808
    2   H      2    1.4430  1.100     -0.883845      1.370262     -2.702486
    3   H      3    1.4430  1.100     -0.789941      2.140160     -1.364008
    4   O      4    1.7500  1.100      2.207691     -0.567816      1.132407
    5   H      5    1.4430  1.100     -1.117631      2.002619      1.329011
    6   O      6    1.7500  1.100     -0.284274      2.209137      0.882011
    7   H      7    1.4430  1.100      0.095863      2.957523      1.358637
    8   H      8    1.4430  1.100      2.581616     -1.393642      0.798291
    9   H      9    1.4430  1.100      2.776998     -0.292524      1.860874
   10   O     10    1.7500  1.100      0.995407     -2.020730     -1.121094
   11   H     11    1.4430  1.100      0.545699     -2.869779     -1.016786
   12   H     12    1.4430  1.100      1.442459     -2.084714     -1.975541
   13   H     13    1.4430  1.100     -2.660770     -0.633517      0.990354
   14   O     14    1.7500  1.100     -1.998402     -0.109365      0.523352
   15   H     15    1.4430  1.100     -2.404826      0.154367     -0.314931
   16  Na     16    1.4915  1.100      0.318198      0.033491     -0.020862
 ------------------------------------------------------------------------------
 SC-PCM: Now performing the calculation in vacuo, IExtIt=   0.
                          Input orientation:                          
 ---------------------------------------------------------------------
 Center     Atomic      Atomic             Coordinates (Angstroms)
 Number     Number       Type             X           Y           Z
 ---------------------------------------------------------------------
      1          8           0       -0.809763    1.250898   -1.747808
      2          1           0       -0.883845    1.370262   -2.702486
      3          1           0       -0.789941    2.140160   -1.364008
      4          8           0        2.207691   -0.567816    1.132407
      5          1           0       -1.117631    2.002619    1.329011
      6          8           0       -0.284274    2.209137    0.882011
      7          1           0        0.095863    2.957523    1.358637
      8          1           0        2.581616   -1.393642    0.798291
      9          1           0        2.776998   -0.292524    1.860874
     10          8           0        0.995407   -2.020730   -1.121094
     11          1           0        0.545699   -2.869779   -1.016786
     12          1           0        1.442459   -2.084714   -1.975541
     13          1           0       -2.660770   -0.633517    0.990354
     14          8           0       -1.998402   -0.109365    0.523352
     15          1           0       -2.404826    0.154367   -0.314931
     16         11           0        0.318198    0.033491   -0.020862
 ---------------------------------------------------------------------
                    Distance matrix (angstroms):
                    1          2          3          4          5
     1  O    0.000000
     2  H    0.964960   0.000000
     3  H    0.968752   1.546960   0.000000
     4  O    4.550647   5.293406   4.748790   0.000000
     5  H    3.182244   4.087481   2.716366   4.207559   0.000000
     6  O    2.847860   3.729856   2.303271   3.739526   0.967958
     7  H    3.658241   4.468999   2.977503   4.115703   1.544438
     8  H    4.997766   5.648365   5.341412   0.966148   5.049820
     9  H    5.316916   6.082014   5.388958   0.964656   4.551780
    10  O    3.788794   4.187030   4.534256   2.942593   5.162875
    11  H    4.399051   4.781540   5.196535   3.560938   5.657711
    12  H    4.031213   4.228120   4.817379   3.542019   5.846402
    13  H    3.804573   4.561761   4.091003   4.870977   3.073301
    14  O    2.901955   3.719888   3.175353   4.274616   2.425968
    15  H    2.408266   3.080943   2.766187   4.887908   2.788449
    16  Na   2.395145   3.228463   2.733142   2.293857   2.785898
                    6          7          8          9         10
     6  O    0.000000
     7  H    0.965276   0.000000
     8  H    4.604384   5.042380   0.000000
     9  H    4.072821   4.243058   1.542633   0.000000
    10  O    4.851988   5.633937   2.567749   3.879806   0.000000
    11  H    5.485405   6.308917   3.101361   4.461150   0.966437
    12  H    5.439152   6.193079   3.077240   4.439710   0.966452
    13  H    3.706772   4.542052   5.300688   5.517555   4.444120
    14  O    2.905567   3.806501   4.764612   4.962556   3.914130
    15  H    3.186140   4.112415   5.338557   5.637831   4.116130
    16  Na   2.431376   3.240743   2.798353   3.113344   2.426715
                   11         12         13         14         15
    11  H    0.000000
    12  H    1.529613   0.000000
    13  H    4.394419   5.266782   0.000000
    14  O    4.057630   4.688923   0.965173   0.000000
    15  H    4.282949   4.751074   1.545974   0.968221   0.000000
    16  Na   3.077758   3.093788   3.215853   2.383949   2.741523
                   16
    16  Na   0.000000
 Stoichiometry    H10NaO5(1+)
 Framework group  C1[X(H10NaO5)]
 Deg. of freedom    42
 Full point group                 C1      NOp   1
 Largest Abelian subgroup         C1      NOp   1
 Largest concise Abelian subgroup C1      NOp   1
                         Standard orientation:                         
 ---------------------------------------------------------------------
 Center     Atomic      Atomic             Coordinates (Angstroms)
 Number     Number       Type             X           Y           Z
 ---------------------------------------------------------------------
      1          8           0       -1.414764   -1.176632   -1.214314
      2          1           0       -1.552101   -1.882855   -1.857382
      3          1           0       -2.036626   -0.471743   -1.448620
      4          8           0        1.995827    1.588461   -0.018274
      5          1           0       -2.166825    1.361763    0.551367
      6          8           0       -1.731935    1.502394   -0.301883
      7          1           0       -2.001143    2.381145   -0.596979
      8          1           0        2.847633    1.132918    0.000435
      9          1           0        2.197183    2.531714   -0.001219
     10          8           0        2.186589   -1.347773   -0.049869
     11          1           0        2.479249   -1.862722    0.713792
     12          1           0        2.544711   -1.819144   -0.813799
     13          1           0       -1.361000   -0.809076    2.572081
     14          8           0       -1.272762   -0.618785    1.629976
     15          1           0       -1.745651   -1.325186    1.166482
     16         11           0        0.244630    0.107443   -0.059203
 ---------------------------------------------------------------------
 Rotational constants (GHZ):           2.0579518           1.3416790           1.1083613
 Standard basis: Aug-CC-pVDZ (5D, 7F)
 There are   244 symmetry adapted cartesian basis functions of A   symmetry.
 There are   232 symmetry adapted basis functions of A   symmetry.
   232 basis functions,   406 primitive gaussians,   244 cartesian basis functions
    30 alpha electrons       30 beta electrons
       nuclear repulsion energy       306.2929598202 Hartrees.
 NAtoms=   16 NActive=   16 NUniq=   16 SFac= 1.00D+00 NAtFMM=   60 NAOKFM=F Big=F
 Integral buffers will be    131072 words long.
 Raffenetti 2 integral format.
 Two-electron integral symmetry is turned on.
 Nuclear repulsion after empirical dispersion term =      306.2833955513 Hartrees.
 One-electron integrals computed using PRISM.
 NBasis=   232 RedAO= T EigKep=  1.91D-04  NBF=   232
 NBsUse=   232 1.00D-06 EigRej= -1.00D+00 NBFU=   232
 SCF N**3 symmetry information disabled.
 ExpMin= 6.16D-03 ExpMax= 3.17D+04 ExpMxC= 1.08D+03 IAcc=3 IRadAn=         5 AccDes= 0.00D+00
 Harris functional with IExCor=  402 and IRadAn=       5 diagonalized for initial guess.
 HarFok:  IExCor=  402 AccDes= 0.00D+00 IRadAn=         5 IDoV= 1 UseB2=F ITyADJ=14
 ICtDFT=  3500011 ScaDFX=  1.000000  1.000000  1.000000  1.000000
 FoFCou: FMM=F IPFlag=           0 FMFlag=      100000 FMFlg1=           0
         NFxFlg=           0 DoJE=T BraDBF=F KetDBF=T FulRan=T
         wScrn=  0.000000 ICntrl=       500 IOpCl=  0 I1Cent=   200000004 NGrid=           0
         NMat0=    1 NMatS0=      1 NMatT0=    0 NMatD0=    1 NMtDS0=    0 NMtDT0=    0
 Petite list used in FoFCou.
 Requested convergence on RMS density matrix=1.00D-08 within 500 cycles.
 Requested convergence on MAX density matrix=1.00D-06.
 Requested convergence on             energy=1.00D-06.
 No special actions if energy rises.
 SCF Done:  E(RB3LYP) =  -544.464576597     A.U. after   10 cycles
            NFock= 10  Conv=0.34D-08     -V/T= 2.0059

 **********************************************************************

            Population analysis using the SCF Density.

 **********************************************************************

 Orbital symmetries:
       Occupied  (A) (A) (A) (A) (A) (A) (A) (A) (A) (A) (A) (A)
                 (A) (A) (A) (A) (A) (A) (A) (A) (A) (A) (A) (A)
                 (A) (A) (A) (A) (A) (A)
       Virtual   (A) (A) (A) (A) (A) (A) (A) (A) (A) (A) (A) (A)
                 (A) (A) (A) (A) (A) (A) (A) (A) (A) (A) (A) (A)
                 (A) (A) (A) (A) (A) (A) (A) (A) (A) (A) (A) (A)
                 (A) (A) (A) (A) (A) (A) (A) (A) (A) (A) (A) (A)
                 (A) (A) (A) (A) (A) (A) (A) (A) (A) (A) (A) (A)
                 (A) (A) (A) (A) (A) (A) (A) (A) (A) (A) (A) (A)
                 (A) (A) (A) (A) (A) (A) (A) (A) (A) (A) (A) (A)
                 (A) (A) (A) (A) (A) (A) (A) (A) (A) (A) (A) (A)
                 (A) (A) (A) (A) (A) (A) (A) (A) (A) (A) (A) (A)
                 (A) (A) (A) (A) (A) (A) (A) (A) (A) (A) (A) (A)
                 (A) (A) (A) (A) (A) (A) (A) (A) (A) (A) (A) (A)
                 (A) (A) (A) (A) (A) (A) (A) (A) (A) (A) (A) (A)
                 (A) (A) (A) (A) (A) (A) (A) (A) (A) (A) (A) (A)
                 (A) (A) (A) (A) (A) (A) (A) (A) (A) (A) (A) (A)
                 (A) (A) (A) (A) (A) (A) (A) (A) (A) (A) (A) (A)
                 (A) (A) (A) (A) (A) (A) (A) (A) (A) (A) (A) (A)
                 (A) (A) (A) (A) (A) (A) (A) (A) (A) (A)
 The electronic state is 1-A.
 Alpha  occ. eigenvalues --  -38.58568 -19.31834 -19.31192 -19.31062 -19.30948
 Alpha  occ. eigenvalues --  -19.30523  -2.32064  -1.25405  -1.25377  -1.25308
 Alpha  occ. eigenvalues --   -1.17995  -1.17669  -1.17072  -1.16880  -1.16678
 Alpha  occ. eigenvalues --   -0.69949  -0.69483  -0.68852  -0.68715  -0.68686
 Alpha  occ. eigenvalues --   -0.57409  -0.56456  -0.55715  -0.55637  -0.55497
 Alpha  occ. eigenvalues --   -0.48516  -0.47982  -0.47892  -0.47799  -0.47199
 Alpha virt. eigenvalues --   -0.16436  -0.14038  -0.12739  -0.12145  -0.10729
 Alpha virt. eigenvalues --   -0.08284  -0.07646  -0.07238  -0.07124  -0.06413
 Alpha virt. eigenvalues --   -0.05793  -0.05333  -0.05174  -0.04914  -0.04865
 Alpha virt. eigenvalues --   -0.04588  -0.04216  -0.02626   0.00145   0.00334
 Alpha virt. eigenvalues --    0.00680   0.01161   0.01679   0.01883   0.02005
 Alpha virt. eigenvalues --    0.02237   0.02774   0.02926   0.03613   0.03902
 Alpha virt. eigenvalues --    0.04122   0.04385   0.04661   0.05269   0.05693
 Alpha virt. eigenvalues --    0.05826   0.06249   0.07183   0.07957   0.08363
 Alpha virt. eigenvalues --    0.08706   0.10000   0.12107   0.12736   0.13160
 Alpha virt. eigenvalues --    0.13682   0.14091   0.15296   0.16832   0.17162
 Alpha virt. eigenvalues --    0.18678   0.18981   0.20020   0.21484   0.22104
 Alpha virt. eigenvalues --    0.22676   0.23531   0.25233   0.25507   0.26339
 Alpha virt. eigenvalues --    0.26961   0.27971   0.28904   0.30817   0.30897
 Alpha virt. eigenvalues --    0.31505   0.32510   0.33218   0.33601   0.34083
 Alpha virt. eigenvalues --    0.34712   0.35119   0.35378   0.36497   0.37018
 Alpha virt. eigenvalues --    0.37371   0.38135   0.39066   0.40077   0.40732
 Alpha virt. eigenvalues --    0.41312   0.42396   0.43929   0.44754   0.46142
 Alpha virt. eigenvalues --    0.47088   0.48175   0.48757   0.51502   0.56283
 Alpha virt. eigenvalues --    0.56644   0.58730   0.58920   0.60961   0.61860
 Alpha virt. eigenvalues --    0.62697   0.69434   0.71006   0.72276   0.72565
 Alpha virt. eigenvalues --    0.74269   0.79850   0.80836   0.81275   0.83602
 Alpha virt. eigenvalues --    0.84859   0.85798   0.86032   0.86968   0.88436
 Alpha virt. eigenvalues --    0.90149   0.90999   0.92547   0.93505   0.94089
 Alpha virt. eigenvalues --    0.96598   1.02623   1.05271   1.05497   1.08512
 Alpha virt. eigenvalues --    1.10168   1.11244   1.13910   1.17566   1.17691
 Alpha virt. eigenvalues --    1.19061   1.20981   1.24256   1.26862   1.27724
 Alpha virt. eigenvalues --    1.31030   1.35935   1.44463   1.49380   1.51027
 Alpha virt. eigenvalues --    1.55925   1.61672   1.64337   1.65211   1.66032
 Alpha virt. eigenvalues --    1.66993   1.68691   1.71889   1.72609   1.73433
 Alpha virt. eigenvalues --    1.76144   1.76863   1.77133   1.77239   1.78044
 Alpha virt. eigenvalues --    1.79846   1.98431   2.00337   2.01742   2.02259
 Alpha virt. eigenvalues --    2.02981   2.03760   2.05483   2.06091   2.06872
 Alpha virt. eigenvalues --    2.08160   2.15562   2.19816   2.21009   2.21294
 Alpha virt. eigenvalues --    2.24280   2.33886   2.36162   2.40407   2.40745
 Alpha virt. eigenvalues --    2.41667   2.50753   2.60337   2.60511   2.64495
 Alpha virt. eigenvalues --    2.68561   2.81403   3.15870   3.16899   3.17635
 Alpha virt. eigenvalues --    3.17899   3.19579   3.20114   3.21458   3.22121
 Alpha virt. eigenvalues --    3.22694   3.24227   3.25535   3.27508   3.28619
 Alpha virt. eigenvalues --    3.29734   3.32995   3.52876   3.54618   3.58486
 Alpha virt. eigenvalues --    3.59042   3.60065   3.75515   3.76080   3.79849
 Alpha virt. eigenvalues --    3.80563   3.80823
          Condensed to atoms (all electrons):
               1          2          3          4          5          6
     1  O    7.826551   0.268276   0.389211  -0.005493  -0.000484  -0.011855
     2  H    0.268276   0.613861  -0.125805   0.000198  -0.000228   0.000895
     3  H    0.389211  -0.125805   0.580633  -0.000656   0.001991   0.012868
     4  O   -0.005493   0.000198  -0.000656   7.727538  -0.002523  -0.011907
     5  H   -0.000484  -0.000228   0.001991  -0.002523   0.567937   0.380486
     6  O   -0.011855   0.000895   0.012868  -0.011907   0.380486   7.917657
     7  H    0.002267   0.000398   0.001543   0.003744  -0.115454   0.261614
     8  H   -0.000919   0.000184  -0.000456   0.376821  -0.000429  -0.001515
     9  H   -0.000286   0.000088  -0.000072   0.310378  -0.000016   0.002452
    10  O   -0.009250   0.003541  -0.001996  -0.029696  -0.000897  -0.008494
    11  H    0.000321   0.000197  -0.000238   0.000078  -0.000046  -0.000449
    12  H    0.000319   0.000323  -0.000607   0.001602  -0.000160  -0.000632
    13  H    0.003303   0.000817  -0.000245   0.002246   0.000747   0.002893
    14  O   -0.021931   0.004564  -0.005906  -0.005652   0.009793  -0.022328
    15  H    0.005101   0.000610   0.002436  -0.000366   0.002926  -0.001070
    16  Na  -0.065565   0.027590  -0.049569  -0.053792  -0.044604  -0.092217
               7          8          9         10         11         12
     1  O    0.002267  -0.000919  -0.000286  -0.009250   0.000321   0.000319
     2  H    0.000398   0.000184   0.000088   0.003541   0.000197   0.000323
     3  H    0.001543  -0.000456  -0.000072  -0.001996  -0.000238  -0.000607
     4  O    0.003744   0.376821   0.310378  -0.029696   0.000078   0.001602
     5  H   -0.115454  -0.000429  -0.000016  -0.000897  -0.000046  -0.000160
     6  O    0.261614  -0.001515   0.002452  -0.008494  -0.000449  -0.000632
     7  H    0.595460  -0.000204   0.000315  -0.000565   0.000045  -0.000051
     8  H   -0.000204   0.594744  -0.100740   0.014613   0.001172   0.001368
     9  H    0.000315  -0.100740   0.585080   0.001878   0.000511   0.000425
    10  O   -0.000565   0.014613   0.001878   7.868724   0.307010   0.309381
    11  H    0.000045   0.001172   0.000511   0.307010   0.573113  -0.093302
    12  H   -0.000051   0.001368   0.000425   0.309381  -0.093302   0.577086
    13  H    0.000836   0.000264   0.000252  -0.000072  -0.000082   0.000136
    14  O    0.003037   0.000013   0.000613  -0.017814   0.002653   0.001016
    15  H   -0.000039  -0.000417  -0.000194   0.000989  -0.000036  -0.000172
    16  Na   0.026235  -0.046885   0.017755  -0.073968   0.009595   0.009058
              13         14         15         16
     1  O    0.003303  -0.021931   0.005101  -0.065565
     2  H    0.000817   0.004564   0.000610   0.027590
     3  H   -0.000245  -0.005906   0.002436  -0.049569
     4  O    0.002246  -0.005652  -0.000366  -0.053792
     5  H    0.000747   0.009793   0.002926  -0.044604
     6  O    0.002893  -0.022328  -0.001070  -0.092217
     7  H    0.000836   0.003037  -0.000039   0.026235
     8  H    0.000264   0.000013  -0.000417  -0.046885
     9  H    0.000252   0.000613  -0.000194   0.017755
    10  O   -0.000072  -0.017814   0.000989  -0.073968
    11  H   -0.000082   0.002653  -0.000036   0.009595
    12  H    0.000136   0.001016  -0.000172   0.009058
    13  H    0.606424   0.268548  -0.119145   0.027684
    14  O    0.268548   7.902904   0.363815  -0.081198
    15  H   -0.119145   0.363815   0.570218  -0.034054
    16  Na   0.027684  -0.081198  -0.034054  10.513482
 Mulliken charges:
               1
     1  O   -0.379566
     2  H    0.204492
     3  H    0.196869
     4  O   -0.312519
     5  H    0.200960
     6  O   -0.428399
     7  H    0.220818
     8  H    0.162385
     9  H    0.181563
    10  O   -0.363385
    11  H    0.199457
    12  H    0.194213
    13  H    0.205394
    14  O   -0.402129
    15  H    0.209397
    16  Na   0.910451
 Sum of Mulliken charges =   1.00000
 Mulliken charges with hydrogens summed into heavy atoms:
               1
     1  O    0.021795
     4  O    0.031428
     6  O   -0.006621
    10  O    0.030285
    14  O    0.012661
    16  Na   0.910451
 Electronic spatial extent (au):  <R**2>=           1156.5595
 Charge=              1.0000 electrons
 Dipole moment (field-independent basis, Debye):
    X=              0.4596    Y=             -0.7398    Z=              0.1339  Tot=              0.8812
 Quadrupole moment (field-independent basis, Debye-Ang):
   XX=             -8.7639   YY=            -14.8391   ZZ=            -24.4193
   XY=             -2.4412   XZ=             -0.1328   YZ=              0.0286
 Traceless Quadrupole moment (field-independent basis, Debye-Ang):
   XX=              7.2435   YY=              1.1683   ZZ=             -8.4118
   XY=             -2.4412   XZ=             -0.1328   YZ=              0.0286
 Octapole moment (field-independent basis, Debye-Ang**2):
  XXX=             27.3011  YYY=             15.1176  ZZZ=             10.6266  XYY=              9.4052
  XXY=             -0.2876  XXZ=             -2.3541  XZZ=            -16.0435  YZZ=            -19.1689
  YYZ=             -7.4705  XYZ=              0.6641
 Hexadecapole moment (field-independent basis, Debye-Ang**3):
 XXXX=           -480.4194 YYYY=           -237.7867 ZZZZ=           -133.5603 XXXY=            -22.9456
 XXXZ=              1.9761 YYYX=            -12.8302 YYYZ=              2.0447 ZZZX=            -12.0336
 ZZZY=             -2.1205 XXYY=            -41.6257 XXZZ=           -102.7158 YYZZ=            -66.8551
 XXYZ=              3.0281 YYXZ=             11.6253 ZZXY=              7.7164
 N-N= 3.062833955513D+02 E-N=-1.895973217413D+03  KE= 5.412948564545D+02
 SC-PCM: Now building the cavity and doing the perturbative PCM calculation.
 SC-PCM: Using the SCF Density.
 Inv3:  Mode=1 IEnd=     7310163.
 Iteration    1 A*A^-1 deviation from unit magnitude is 4.00D-15 for   1427.
 Iteration    1 A*A^-1 deviation from orthogonality  is 2.89D-15 for   1427    379.
 Iteration    1 A^-1*A deviation from unit magnitude is 2.89D-15 for    223.
 Iteration    1 A^-1*A deviation from orthogonality  is 2.22D-14 for   1474   1426.
 With in-vacuo wavefunction:
 Error on total polarization charges =  0.01022
 SC-PCM: The total energy in vacuo is      -544.464576597 a.u.
 SC-PCM: The total energy including the PCM contribution is      -544.541959863 a.u.
 SC-PCM: Iterating to achieve self-consistent PCM reaction field, IExtIt=   1.
 Standard basis: Aug-CC-pVDZ (5D, 7F)
 There are   244 symmetry adapted cartesian basis functions of A   symmetry.
 There are   232 symmetry adapted basis functions of A   symmetry.
   232 basis functions,   406 primitive gaussians,   244 cartesian basis functions
    30 alpha electrons       30 beta electrons
       nuclear repulsion energy       306.2929598202 Hartrees.
 NAtoms=   16 NActive=   16 NUniq=   16 SFac= 1.00D+00 NAtFMM=   60 NAOKFM=F Big=F
 Integral buffers will be    131072 words long.
 Raffenetti 2 integral format.
 Two-electron integral symmetry is turned on.
 Nuclei-solvent charges/DBFs interaction =        -4.2959879370 a.u.
 Nuclear repulsion after self-consistent solvent charges =      301.9969718832 Hartrees.
 Nuclear repulsion after empirical dispersion term =      301.9874076143 Hartrees.
 One-electron integrals computed using PRISM.
 NBasis=   232 RedAO= T EigKep=  1.91D-04  NBF=   232
 NBsUse=   232 1.00D-06 EigRej= -1.00D+00 NBFU=   232
 Initial guess from the checkpoint file:  "sim009_type3_coord-5_4-1-0_10C_b1_id81769_step4300_2.chk"
 SCF N**3 symmetry information disabled.
 B after Tr=    -0.000000   -0.000000   -0.000000
         Rot=    1.000000    0.000000   -0.000000   -0.000000 Ang=   0.00 deg.
 ExpMin= 6.16D-03 ExpMax= 3.17D+04 ExpMxC= 1.08D+03 IAcc=3 IRadAn=         5 AccDes= 0.00D+00
 Harris functional with IExCor=  402 and IRadAn=       5 diagonalized for initial guess.
 HarFok:  IExCor=  402 AccDes= 0.00D+00 IRadAn=         5 IDoV= 1 UseB2=F ITyADJ=14
 ICtDFT=  3500011 ScaDFX=  1.000000  1.000000  1.000000  1.000000
 FoFCou: FMM=F IPFlag=           0 FMFlag=      100000 FMFlg1=           0
         NFxFlg=           0 DoJE=T BraDBF=F KetDBF=T FulRan=T
         wScrn=  0.000000 ICntrl=       500 IOpCl=  0 I1Cent=   200000004 NGrid=           0
         NMat0=    1 NMatS0=      1 NMatT0=    0 NMatD0=    1 NMtDS0=    0 NMtDT0=    0
 Petite list used in FoFCou.
 Requested convergence on RMS density matrix=1.00D-08 within 500 cycles.
 Requested convergence on MAX density matrix=1.00D-06.
 Requested convergence on             energy=1.00D-06.
 No special actions if energy rises.
 SCF Done:  E(RB3LYP) =  -544.541958189     A.U. after    8 cycles
            NFock=  8  Conv=0.74D-08     -V/T= 2.0060

 **********************************************************************

            Population analysis using the SCF Density.

 **********************************************************************

 Orbital symmetries:
       Occupied  (A) (A) (A) (A) (A) (A) (A) (A) (A) (A) (A) (A)
                 (A) (A) (A) (A) (A) (A) (A) (A) (A) (A) (A) (A)
                 (A) (A) (A) (A) (A) (A)
       Virtual   (A) (A) (A) (A) (A) (A) (A) (A) (A) (A) (A) (A)
                 (A) (A) (A) (A) (A) (A) (A) (A) (A) (A) (A) (A)
                 (A) (A) (A) (A) (A) (A) (A) (A) (A) (A) (A) (A)
                 (A) (A) (A) (A) (A) (A) (A) (A) (A) (A) (A) (A)
                 (A) (A) (A) (A) (A) (A) (A) (A) (A) (A) (A) (A)
                 (A) (A) (A) (A) (A) (A) (A) (A) (A) (A) (A) (A)
                 (A) (A) (A) (A) (A) (A) (A) (A) (A) (A) (A) (A)
                 (A) (A) (A) (A) (A) (A) (A) (A) (A) (A) (A) (A)
                 (A) (A) (A) (A) (A) (A) (A) (A) (A) (A) (A) (A)
                 (A) (A) (A) (A) (A) (A) (A) (A) (A) (A) (A) (A)
                 (A) (A) (A) (A) (A) (A) (A) (A) (A) (A) (A) (A)
                 (A) (A) (A) (A) (A) (A) (A) (A) (A) (A) (A) (A)
                 (A) (A) (A) (A) (A) (A) (A) (A) (A) (A) (A) (A)
                 (A) (A) (A) (A) (A) (A) (A) (A) (A) (A) (A) (A)
                 (A) (A) (A) (A) (A) (A) (A) (A) (A) (A) (A) (A)
                 (A) (A) (A) (A) (A) (A) (A) (A) (A) (A) (A) (A)
                 (A) (A) (A) (A) (A) (A) (A) (A) (A) (A)
 The electronic state is 1-A.
 Alpha  occ. eigenvalues --  -38.43759 -19.17718 -19.17418 -19.17394 -19.17303
 Alpha  occ. eigenvalues --  -19.17256  -2.17225  -1.10621  -1.10500  -1.10491
 Alpha  occ. eigenvalues --   -1.04008  -1.03817  -1.03396  -1.03319  -1.03180
 Alpha  occ. eigenvalues --   -0.56215  -0.55401  -0.55290  -0.55106  -0.55023
 Alpha  occ. eigenvalues --   -0.43472  -0.42556  -0.42041  -0.41851  -0.41823
 Alpha  occ. eigenvalues --   -0.34547  -0.34307  -0.34189  -0.34106  -0.34091
 Alpha virt. eigenvalues --   -0.03727  -0.01702  -0.00999  -0.00479   0.01246
 Alpha virt. eigenvalues --    0.01823   0.01847   0.01953   0.02067   0.03402
 Alpha virt. eigenvalues --    0.03617   0.03939   0.04096   0.05596   0.05962
 Alpha virt. eigenvalues --    0.06263   0.06615   0.07686   0.11039   0.11992
 Alpha virt. eigenvalues --    0.12098   0.12285   0.12592   0.12970   0.13207
 Alpha virt. eigenvalues --    0.13944   0.14427   0.15016   0.15199   0.15497
 Alpha virt. eigenvalues --    0.15945   0.16157   0.16367   0.16964   0.17492
 Alpha virt. eigenvalues --    0.18036   0.18372   0.19542   0.20233   0.20488
 Alpha virt. eigenvalues --    0.21406   0.22449   0.24409   0.25202   0.25803
 Alpha virt. eigenvalues --    0.26126   0.26640   0.27960   0.29495   0.29981
 Alpha virt. eigenvalues --    0.31288   0.31761   0.32777   0.34366   0.35265
 Alpha virt. eigenvalues --    0.35826   0.36482   0.37744   0.38628   0.39568
 Alpha virt. eigenvalues --    0.39696   0.41082   0.41508   0.43403   0.43686
 Alpha virt. eigenvalues --    0.44351   0.45284   0.46105   0.46418   0.47007
 Alpha virt. eigenvalues --    0.47600   0.48119   0.48258   0.49581   0.49783
 Alpha virt. eigenvalues --    0.50396   0.51189   0.52104   0.53144   0.53619
 Alpha virt. eigenvalues --    0.54303   0.55887   0.57185   0.57759   0.59392
 Alpha virt. eigenvalues --    0.60347   0.61529   0.62019   0.64617   0.69666
 Alpha virt. eigenvalues --    0.69896   0.72024   0.72330   0.74059   0.75144
 Alpha virt. eigenvalues --    0.75974   0.82425   0.84070   0.85557   0.85782
 Alpha virt. eigenvalues --    0.87607   0.93430   0.94319   0.94749   0.97086
 Alpha virt. eigenvalues --    0.98336   0.99320   0.99424   1.00507   1.02032
 Alpha virt. eigenvalues --    1.03662   1.04498   1.06160   1.07051   1.07675
 Alpha virt. eigenvalues --    1.10234   1.16342   1.18811   1.19121   1.22038
 Alpha virt. eigenvalues --    1.23593   1.24555   1.27440   1.31314   1.31356
 Alpha virt. eigenvalues --    1.32587   1.34602   1.37903   1.40359   1.41328
 Alpha virt. eigenvalues --    1.44494   1.49709   1.58129   1.63223   1.64727
 Alpha virt. eigenvalues --    1.69509   1.75787   1.77962   1.78682   1.79583
 Alpha virt. eigenvalues --    1.80698   1.82328   1.85751   1.86312   1.87087
 Alpha virt. eigenvalues --    1.89824   1.90315   1.90529   1.91029   1.91664
 Alpha virt. eigenvalues --    1.93397   2.12325   2.13926   2.15591   2.16116
 Alpha virt. eigenvalues --    2.16577   2.17526   2.19058   2.19729   2.20593
 Alpha virt. eigenvalues --    2.21859   2.29672   2.33243   2.34653   2.34997
 Alpha virt. eigenvalues --    2.37929   2.47885   2.49686   2.53970   2.54338
 Alpha virt. eigenvalues --    2.55305   2.64379   2.73761   2.74301   2.78016
 Alpha virt. eigenvalues --    2.82164   2.95310   3.29732   3.30358   3.31266
 Alpha virt. eigenvalues --    3.31591   3.33122   3.33659   3.35135   3.35827
 Alpha virt. eigenvalues --    3.36378   3.38197   3.39254   3.41194   3.42382
 Alpha virt. eigenvalues --    3.43442   3.46716   3.66963   3.68292   3.71793
 Alpha virt. eigenvalues --    3.72687   3.73707   3.89560   3.89752   3.93598
 Alpha virt. eigenvalues --    3.94232   3.94326
          Condensed to atoms (all electrons):
               1          2          3          4          5          6
     1  O    7.887179   0.261437   0.387150  -0.006905  -0.000212  -0.015242
     2  H    0.261437   0.610669  -0.126238  -0.000005  -0.000243   0.001306
     3  H    0.387150  -0.126238   0.575382  -0.000614   0.001850   0.010991
     4  O   -0.006905  -0.000005  -0.000614   7.823409  -0.002435  -0.013421
     5  H   -0.000212  -0.000243   0.001850  -0.002435   0.560420   0.378473
     6  O   -0.015242   0.001306   0.010991  -0.013421   0.378473   7.975151
     7  H    0.002535   0.000392   0.001762   0.003969  -0.116004   0.255250
     8  H   -0.000982   0.000207  -0.000477   0.371192  -0.000414  -0.001522
     9  H   -0.000372   0.000088  -0.000047   0.299094   0.000037   0.002607
    10  O   -0.009052   0.003777  -0.002149  -0.033831  -0.000871  -0.008745
    11  H    0.000172   0.000206  -0.000254   0.000403  -0.000021  -0.000506
    12  H    0.000511   0.000379  -0.000620   0.002080  -0.000184  -0.000690
    13  H    0.003473   0.000837  -0.000211   0.002218   0.000850   0.003121
    14  O   -0.027167   0.004638  -0.005232  -0.007007   0.008734  -0.025140
    15  H    0.004203   0.000663   0.002298  -0.000423   0.002733  -0.001059
    16  Na  -0.077000   0.028657  -0.048715  -0.079348  -0.043540  -0.102067
               7          8          9         10         11         12
     1  O    0.002535  -0.000982  -0.000372  -0.009052   0.000172   0.000511
     2  H    0.000392   0.000207   0.000088   0.003777   0.000206   0.000379
     3  H    0.001762  -0.000477  -0.000047  -0.002149  -0.000254  -0.000620
     4  O    0.003969   0.371192   0.299094  -0.033831   0.000403   0.002080
     5  H   -0.116004  -0.000414   0.000037  -0.000871  -0.000021  -0.000184
     6  O    0.255250  -0.001522   0.002607  -0.008745  -0.000506  -0.000690
     7  H    0.592286  -0.000182   0.000361  -0.000593   0.000042  -0.000055
     8  H   -0.000182   0.587816  -0.102609   0.013074   0.001266   0.001447
     9  H    0.000361  -0.102609   0.584533   0.002107   0.000540   0.000427
    10  O   -0.000593   0.013074   0.002107   7.926515   0.304233   0.304817
    11  H    0.000042   0.001266   0.000540   0.304233   0.565946  -0.094593
    12  H   -0.000055   0.001447   0.000427   0.304817  -0.094593   0.570530
    13  H    0.000851   0.000306   0.000272  -0.000024  -0.000045   0.000130
    14  O    0.003090   0.000162   0.000561  -0.017152   0.002571   0.001007
    15  H   -0.000031  -0.000415  -0.000194   0.001098  -0.000046  -0.000166
    16  Na   0.027233  -0.043354   0.020825  -0.083764   0.009518   0.009765
              13         14         15         16
     1  O    0.003473  -0.027167   0.004203  -0.077000
     2  H    0.000837   0.004638   0.000663   0.028657
     3  H   -0.000211  -0.005232   0.002298  -0.048715
     4  O    0.002218  -0.007007  -0.000423  -0.079348
     5  H    0.000850   0.008734   0.002733  -0.043540
     6  O    0.003121  -0.025140  -0.001059  -0.102067
     7  H    0.000851   0.003090  -0.000031   0.027233
     8  H    0.000306   0.000162  -0.000415  -0.043354
     9  H    0.000272   0.000561  -0.000194   0.020825
    10  O   -0.000024  -0.017152   0.001098  -0.083764
    11  H   -0.000045   0.002571  -0.000046   0.009518
    12  H    0.000130   0.001007  -0.000166   0.009765
    13  H    0.602846   0.263113  -0.119332   0.028206
    14  O    0.263113   7.948200   0.363264  -0.086935
    15  H   -0.119332   0.363264   0.563060  -0.033829
    16  Na   0.028206  -0.086935  -0.033829  10.493467
 Mulliken charges:
               1
     1  O   -0.409727
     2  H    0.213230
     3  H    0.205123
     4  O   -0.358374
     5  H    0.210826
     6  O   -0.458509
     7  H    0.229095
     8  H    0.174483
     9  H    0.191772
    10  O   -0.399440
    11  H    0.210567
    12  H    0.205215
    13  H    0.213390
    14  O   -0.426707
    15  H    0.218176
    16  Na   0.980879
 Sum of Mulliken charges =   1.00000
 Mulliken charges with hydrogens summed into heavy atoms:
               1
     1  O    0.008626
     4  O    0.007881
     6  O   -0.018588
    10  O    0.016342
    14  O    0.004859
    16  Na   0.980879
 Electronic spatial extent (au):  <R**2>=           1157.2274
 Charge=              1.0000 electrons
 Dipole moment (field-independent basis, Debye):
    X=              0.4850    Y=             -0.7853    Z=              0.1329  Tot=              0.9326
 Quadrupole moment (field-independent basis, Debye-Ang):
   XX=             -9.1928   YY=            -15.1379   ZZ=            -24.5898
   XY=             -2.5731   XZ=             -0.1558   YZ=              0.0275
 Traceless Quadrupole moment (field-independent basis, Debye-Ang):
   XX=              7.1140   YY=              1.1690   ZZ=             -8.2830
   XY=             -2.5731   XZ=             -0.1558   YZ=              0.0275
 Octapole moment (field-independent basis, Debye-Ang**2):
  XXX=             27.2663  YYY=             14.8600  ZZZ=             10.5371  XYY=              9.3063
  XXY=             -0.4800  XXZ=             -2.3085  XZZ=            -15.9410  YZZ=            -19.3278
  YYZ=             -7.3576  XYZ=              0.6664
 Hexadecapole moment (field-independent basis, Debye-Ang**3):
 XXXX=           -486.2516 YYYY=           -240.4133 ZZZZ=           -134.9600 XXXY=            -23.3514
 XXXZ=              1.7898 YYYX=            -13.7677 YYYZ=              1.9950 ZZZX=            -11.8739
 ZZZY=             -2.1416 XXYY=            -43.2577 XXZZ=           -103.8974 YYZZ=            -67.4891
 XXYZ=              3.1260 YYXZ=             11.3805 ZZXY=              7.4438
 N-N= 3.019874076143D+02 E-N=-1.895863554804D+03  KE= 5.412814582768D+02
 SC-PCM: Using the SCF Density.
 SC-PCM: The equilibrium contribution to the free energy is   -0.077851359 a.u.
 SC-PCM: The total energy including the PCM contribution is      -544.542198200 a.u.
 SC-PCM: Erms=  0.24251D-04 Emax=  0.15982D-03 Qconv=  0.10000D-06
 SC-PCM: Iterating to achieve self-consistent PCM reaction field, IExtIt=   2.
 Standard basis: Aug-CC-pVDZ (5D, 7F)
 There are   244 symmetry adapted cartesian basis functions of A   symmetry.
 There are   232 symmetry adapted basis functions of A   symmetry.
   232 basis functions,   406 primitive gaussians,   244 cartesian basis functions
    30 alpha electrons       30 beta electrons
       nuclear repulsion energy       306.2929598202 Hartrees.
 NAtoms=   16 NActive=   16 NUniq=   16 SFac= 1.00D+00 NAtFMM=   60 NAOKFM=F Big=F
 Integral buffers will be    131072 words long.
 Raffenetti 2 integral format.
 Two-electron integral symmetry is turned on.
 Nuclei-solvent charges/DBFs interaction =        -4.3163427223 a.u.
 Nuclear repulsion after self-consistent solvent charges =      301.9766170979 Hartrees.
 Nuclear repulsion after empirical dispersion term =      301.9670528290 Hartrees.
 One-electron integrals computed using PRISM.
 NBasis=   232 RedAO= T EigKep=  1.91D-04  NBF=   232
 NBsUse=   232 1.00D-06 EigRej= -1.00D+00 NBFU=   232
 Initial guess from the checkpoint file:  "sim009_type3_coord-5_4-1-0_10C_b1_id81769_step4300_2.chk"
 SCF N**3 symmetry information disabled.
 B after Tr=     0.000000    0.000000    0.000000
         Rot=    1.000000    0.000000    0.000000    0.000000 Ang=   0.00 deg.
 ExpMin= 6.16D-03 ExpMax= 3.17D+04 ExpMxC= 1.08D+03 IAcc=3 IRadAn=         5 AccDes= 0.00D+00
 Harris functional with IExCor=  402 and IRadAn=       5 diagonalized for initial guess.
 HarFok:  IExCor=  402 AccDes= 0.00D+00 IRadAn=         5 IDoV= 1 UseB2=F ITyADJ=14
 ICtDFT=  3500011 ScaDFX=  1.000000  1.000000  1.000000  1.000000
 FoFCou: FMM=F IPFlag=           0 FMFlag=      100000 FMFlg1=           0
         NFxFlg=           0 DoJE=T BraDBF=F KetDBF=T FulRan=T
         wScrn=  0.000000 ICntrl=       500 IOpCl=  0 I1Cent=   200000004 NGrid=           0
         NMat0=    1 NMatS0=      1 NMatT0=    0 NMatD0=    1 NMtDS0=    0 NMtDT0=    0
 Petite list used in FoFCou.
 Requested convergence on RMS density matrix=1.00D-08 within 500 cycles.
 Requested convergence on MAX density matrix=1.00D-06.
 Requested convergence on             energy=1.00D-06.
 No special actions if energy rises.
 SCF Done:  E(RB3LYP) =  -544.542186244     A.U. after    8 cycles
            NFock=  8  Conv=0.60D-09     -V/T= 2.0060

 **********************************************************************

            Population analysis using the SCF Density.

 **********************************************************************

 Orbital symmetries:
       Occupied  (A) (A) (A) (A) (A) (A) (A) (A) (A) (A) (A) (A)
                 (A) (A) (A) (A) (A) (A) (A) (A) (A) (A) (A) (A)
                 (A) (A) (A) (A) (A) (A)
       Virtual   (A) (A) (A) (A) (A) (A) (A) (A) (A) (A) (A) (A)
                 (A) (A) (A) (A) (A) (A) (A) (A) (A) (A) (A) (A)
                 (A) (A) (A) (A) (A) (A) (A) (A) (A) (A) (A) (A)
                 (A) (A) (A) (A) (A) (A) (A) (A) (A) (A) (A) (A)
                 (A) (A) (A) (A) (A) (A) (A) (A) (A) (A) (A) (A)
                 (A) (A) (A) (A) (A) (A) (A) (A) (A) (A) (A) (A)
                 (A) (A) (A) (A) (A) (A) (A) (A) (A) (A) (A) (A)
                 (A) (A) (A) (A) (A) (A) (A) (A) (A) (A) (A) (A)
                 (A) (A) (A) (A) (A) (A) (A) (A) (A) (A) (A) (A)
                 (A) (A) (A) (A) (A) (A) (A) (A) (A) (A) (A) (A)
                 (A) (A) (A) (A) (A) (A) (A) (A) (A) (A) (A) (A)
                 (A) (A) (A) (A) (A) (A) (A) (A) (A) (A) (A) (A)
                 (A) (A) (A) (A) (A) (A) (A) (A) (A) (A) (A) (A)
                 (A) (A) (A) (A) (A) (A) (A) (A) (A) (A) (A) (A)
                 (A) (A) (A) (A) (A) (A) (A) (A) (A) (A) (A) (A)
                 (A) (A) (A) (A) (A) (A) (A) (A) (A) (A) (A) (A)
                 (A) (A) (A) (A) (A) (A) (A) (A) (A) (A)
 The electronic state is 1-A.
 Alpha  occ. eigenvalues --  -38.43662 -19.17652 -19.17395 -19.17355 -19.17285
 Alpha  occ. eigenvalues --  -19.17222  -2.17126  -1.10526  -1.10401  -1.10390
 Alpha  occ. eigenvalues --   -1.03970  -1.03763  -1.03371  -1.03285  -1.03148
 Alpha  occ. eigenvalues --   -0.56185  -0.55383  -0.55222  -0.55075  -0.54993
 Alpha  occ. eigenvalues --   -0.43422  -0.42511  -0.42000  -0.41814  -0.41783
 Alpha  occ. eigenvalues --   -0.34490  -0.34282  -0.34152  -0.34069  -0.34061
 Alpha virt. eigenvalues --   -0.03701  -0.01687  -0.00990  -0.00463   0.01255
 Alpha virt. eigenvalues --    0.01834   0.01855   0.01963   0.02076   0.03430
 Alpha virt. eigenvalues --    0.03625   0.03955   0.04110   0.05602   0.05978
 Alpha virt. eigenvalues --    0.06274   0.06631   0.07699   0.11054   0.12015
 Alpha virt. eigenvalues --    0.12121   0.12324   0.12624   0.12996   0.13244
 Alpha virt. eigenvalues --    0.13979   0.14458   0.15031   0.15228   0.15522
 Alpha virt. eigenvalues --    0.15962   0.16175   0.16391   0.16992   0.17511
 Alpha virt. eigenvalues --    0.18046   0.18406   0.19556   0.20251   0.20514
 Alpha virt. eigenvalues --    0.21438   0.22475   0.24419   0.25222   0.25838
 Alpha virt. eigenvalues --    0.26157   0.26669   0.27985   0.29533   0.30015
 Alpha virt. eigenvalues --    0.31334   0.31801   0.32818   0.34395   0.35292
 Alpha virt. eigenvalues --    0.35867   0.36527   0.37779   0.38659   0.39605
 Alpha virt. eigenvalues --    0.39729   0.41117   0.41539   0.43422   0.43716
 Alpha virt. eigenvalues --    0.44380   0.45304   0.46130   0.46438   0.47037
 Alpha virt. eigenvalues --    0.47628   0.48153   0.48287   0.49611   0.49799
 Alpha virt. eigenvalues --    0.50438   0.51218   0.52133   0.53172   0.53643
 Alpha virt. eigenvalues --    0.54334   0.55931   0.57213   0.57779   0.59430
 Alpha virt. eigenvalues --    0.60370   0.61557   0.62038   0.64640   0.69698
 Alpha virt. eigenvalues --    0.69916   0.72047   0.72376   0.74083   0.75177
 Alpha virt. eigenvalues --    0.76009   0.82442   0.84098   0.85594   0.85816
 Alpha virt. eigenvalues --    0.87645   0.93470   0.94351   0.94791   0.97119
 Alpha virt. eigenvalues --    0.98374   0.99358   0.99460   1.00541   1.02068
 Alpha virt. eigenvalues --    1.03701   1.04535   1.06203   1.07085   1.07719
 Alpha virt. eigenvalues --    1.10269   1.16388   1.18846   1.19159   1.22071
 Alpha virt. eigenvalues --    1.23627   1.24585   1.27479   1.31366   1.31397
 Alpha virt. eigenvalues --    1.32621   1.34648   1.37943   1.40399   1.41369
 Alpha virt. eigenvalues --    1.44534   1.49761   1.58170   1.63278   1.64769
 Alpha virt. eigenvalues --    1.69547   1.75847   1.77991   1.78703   1.79611
 Alpha virt. eigenvalues --    1.80731   1.82357   1.85798   1.86345   1.87119
 Alpha virt. eigenvalues --    1.89853   1.90329   1.90549   1.91075   1.91700
 Alpha virt. eigenvalues --    1.93418   2.12371   2.13951   2.15627   2.16157
 Alpha virt. eigenvalues --    2.16605   2.17562   2.19078   2.19764   2.20621
 Alpha virt. eigenvalues --    2.21886   2.29731   2.33260   2.34674   2.35028
 Alpha virt. eigenvalues --    2.37956   2.47943   2.49713   2.54003   2.54365
 Alpha virt. eigenvalues --    2.55337   2.64418   2.73788   2.74349   2.78042
 Alpha virt. eigenvalues --    2.82206   2.95369   3.29783   3.30388   3.31297
 Alpha virt. eigenvalues --    3.31629   3.33157   3.33692   3.35172   3.35866
 Alpha virt. eigenvalues --    3.36412   3.38250   3.39293   3.41232   3.42425
 Alpha virt. eigenvalues --    3.43482   3.46750   3.67029   3.68325   3.71814
 Alpha virt. eigenvalues --    3.72721   3.73736   3.89596   3.89813   3.93633
 Alpha virt. eigenvalues --    3.94259   3.94356
          Condensed to atoms (all electrons):
               1          2          3          4          5          6
     1  O    7.888055   0.261279   0.387051  -0.006932  -0.000209  -0.015257
     2  H    0.261279   0.611092  -0.126222  -0.000011  -0.000246   0.001334
     3  H    0.387051  -0.126222   0.575546  -0.000616   0.001854   0.010951
     4  O   -0.006932  -0.000011  -0.000616   7.825222  -0.002444  -0.013480
     5  H   -0.000209  -0.000246   0.001854  -0.002444   0.560336   0.378486
     6  O   -0.015257   0.001334   0.010951  -0.013480   0.378486   7.975891
     7  H    0.002543   0.000391   0.001760   0.003974  -0.116030   0.255082
     8  H   -0.000982   0.000208  -0.000477   0.371018  -0.000414  -0.001522
     9  H   -0.000372   0.000088  -0.000046   0.298834   0.000040   0.002608
    10  O   -0.009004   0.003776  -0.002156  -0.033922  -0.000870  -0.008739
    11  H    0.000174   0.000205  -0.000255   0.000412  -0.000021  -0.000506
    12  H    0.000517   0.000380  -0.000619   0.002101  -0.000185  -0.000689
    13  H    0.003490   0.000836  -0.000215   0.002210   0.000849   0.003117
    14  O   -0.027199   0.004635  -0.005204  -0.007056   0.008719  -0.025097
    15  H    0.004189   0.000659   0.002305  -0.000428   0.002732  -0.001042
    16  Na  -0.077469   0.028692  -0.048674  -0.080253  -0.043531  -0.102463
               7          8          9         10         11         12
     1  O    0.002543  -0.000982  -0.000372  -0.009004   0.000174   0.000517
     2  H    0.000391   0.000208   0.000088   0.003776   0.000205   0.000380
     3  H    0.001760  -0.000477  -0.000046  -0.002156  -0.000255  -0.000619
     4  O    0.003974   0.371018   0.298834  -0.033922   0.000412   0.002101
     5  H   -0.116030  -0.000414   0.000040  -0.000870  -0.000021  -0.000185
     6  O    0.255082  -0.001522   0.002608  -0.008739  -0.000506  -0.000689
     7  H    0.592780  -0.000179   0.000361  -0.000593   0.000042  -0.000055
     8  H   -0.000179   0.587844  -0.102670   0.013061   0.001267   0.001448
     9  H    0.000361  -0.102670   0.585398   0.002141   0.000540   0.000426
    10  O   -0.000593   0.013061   0.002141   7.927631   0.304162   0.304688
    11  H    0.000042   0.001267   0.000540   0.304162   0.566088  -0.094619
    12  H   -0.000055   0.001448   0.000426   0.304688  -0.094619   0.570667
    13  H    0.000850   0.000306   0.000271  -0.000023  -0.000045   0.000129
    14  O    0.003105   0.000157   0.000561  -0.017081   0.002563   0.001004
    15  H   -0.000036  -0.000415  -0.000193   0.001095  -0.000046  -0.000166
    16  Na   0.027303  -0.043202   0.020926  -0.084202   0.009525   0.009785
              13         14         15         16
     1  O    0.003490  -0.027199   0.004189  -0.077469
     2  H    0.000836   0.004635   0.000659   0.028692
     3  H   -0.000215  -0.005204   0.002305  -0.048674
     4  O    0.002210  -0.007056  -0.000428  -0.080253
     5  H    0.000849   0.008719   0.002732  -0.043531
     6  O    0.003117  -0.025097  -0.001042  -0.102463
     7  H    0.000850   0.003105  -0.000036   0.027303
     8  H    0.000306   0.000157  -0.000415  -0.043202
     9  H    0.000271   0.000561  -0.000193   0.020926
    10  O   -0.000023  -0.017081   0.001095  -0.084202
    11  H   -0.000045   0.002563  -0.000046   0.009525
    12  H    0.000129   0.001004  -0.000166   0.009785
    13  H    0.603179   0.263037  -0.119308   0.028215
    14  O    0.263037   7.948543   0.363240  -0.087185
    15  H   -0.119308   0.363240   0.563107  -0.033807
    16  Na   0.028215  -0.087185  -0.033807  10.492580
 Mulliken charges:
               1
     1  O   -0.409872
     2  H    0.212906
     3  H    0.205017
     4  O   -0.358627
     5  H    0.210934
     6  O   -0.458673
     7  H    0.228702
     8  H    0.174554
     9  H    0.191086
    10  O   -0.399965
    11  H    0.210516
    12  H    0.205188
    13  H    0.213102
    14  O   -0.426742
    15  H    0.218114
    16  Na   0.983760
 Sum of Mulliken charges =   1.00000
 Mulliken charges with hydrogens summed into heavy atoms:
               1
     1  O    0.008051
     4  O    0.007012
     6  O   -0.019037
    10  O    0.015739
    14  O    0.004474
    16  Na   0.983760
 Electronic spatial extent (au):  <R**2>=           1157.3200
 Charge=              1.0000 electrons
 Dipole moment (field-independent basis, Debye):
    X=              0.4910    Y=             -0.7896    Z=              0.1319  Tot=              0.9391
 Quadrupole moment (field-independent basis, Debye-Ang):
   XX=             -9.2708   YY=            -15.1748   ZZ=            -24.5996
   XY=             -2.5861   XZ=             -0.1572   YZ=              0.0275
 Traceless Quadrupole moment (field-independent basis, Debye-Ang):
   XX=              7.0776   YY=              1.1736   ZZ=             -8.2512
   XY=             -2.5861   XZ=             -0.1572   YZ=              0.0275
 Octapole moment (field-independent basis, Debye-Ang**2):
  XXX=             27.2512  YYY=             14.8092  ZZZ=             10.5169  XYY=              9.2814
  XXY=             -0.4927  XXZ=             -2.3052  XZZ=            -15.9046  YZZ=            -19.3214
  YYZ=             -7.3433  XYZ=              0.6661
 Hexadecapole moment (field-independent basis, Debye-Ang**3):
 XXXX=           -487.0393 YYYY=           -240.7228 ZZZZ=           -135.0470 XXXY=            -23.3799
 XXXZ=              1.7676 YYYX=            -13.8644 YYYZ=              1.9888 ZZZX=            -11.8433
 ZZZY=             -2.1393 XXYY=            -43.5842 XXZZ=           -104.0248 YYZZ=            -67.5354
 XXYZ=              3.1275 YYXZ=             11.3470 ZZXY=              7.4091
 N-N= 3.019670528290D+02 E-N=-1.895852135634D+03  KE= 5.412815988569D+02
 SC-PCM: Using the SCF Density.
 SC-PCM: The equilibrium contribution to the free energy is   -0.077878794 a.u.
 SC-PCM: The total energy including the PCM contribution is      -544.542200102 a.u.
 SC-PCM: Erms=  0.31863D-05 Emax=  0.15960D-04 Qconv=  0.10000D-06
 SC-PCM: Iterating to achieve self-consistent PCM reaction field, IExtIt=   3.
 Standard basis: Aug-CC-pVDZ (5D, 7F)
 There are   244 symmetry adapted cartesian basis functions of A   symmetry.
 There are   232 symmetry adapted basis functions of A   symmetry.
   232 basis functions,   406 primitive gaussians,   244 cartesian basis functions
    30 alpha electrons       30 beta electrons
       nuclear repulsion energy       306.2929598202 Hartrees.
 NAtoms=   16 NActive=   16 NUniq=   16 SFac= 1.00D+00 NAtFMM=   60 NAOKFM=F Big=F
 Integral buffers will be    131072 words long.
 Raffenetti 2 integral format.
 Two-electron integral symmetry is turned on.
 Nuclei-solvent charges/DBFs interaction =        -4.3194418125 a.u.
 Nuclear repulsion after self-consistent solvent charges =      301.9735180077 Hartrees.
 Nuclear repulsion after empirical dispersion term =      301.9639537388 Hartrees.
 One-electron integrals computed using PRISM.
 NBasis=   232 RedAO= T EigKep=  1.91D-04  NBF=   232
 NBsUse=   232 1.00D-06 EigRej= -1.00D+00 NBFU=   232
 Initial guess from the checkpoint file:  "sim009_type3_coord-5_4-1-0_10C_b1_id81769_step4300_2.chk"
 SCF N**3 symmetry information disabled.
 B after Tr=     0.000000    0.000000    0.000000
         Rot=    1.000000    0.000000    0.000000    0.000000 Ang=   0.00 deg.
 Requested convergence on RMS density matrix=1.00D-08 within 500 cycles.
 Requested convergence on MAX density matrix=1.00D-06.
 Requested convergence on             energy=1.00D-06.
 No special actions if energy rises.
 SCF Done:  E(RB3LYP) =  -544.542198200     A.U. after    5 cycles
            NFock=  5  Conv=0.62D-08     -V/T= 2.0060

 **********************************************************************

            Population analysis using the SCF Density.

 **********************************************************************

 Orbital symmetries:
       Occupied  (A) (A) (A) (A) (A) (A) (A) (A) (A) (A) (A) (A)
                 (A) (A) (A) (A) (A) (A) (A) (A) (A) (A) (A) (A)
                 (A) (A) (A) (A) (A) (A)
       Virtual   (A) (A) (A) (A) (A) (A) (A) (A) (A) (A) (A) (A)
                 (A) (A) (A) (A) (A) (A) (A) (A) (A) (A) (A) (A)
                 (A) (A) (A) (A) (A) (A) (A) (A) (A) (A) (A) (A)
                 (A) (A) (A) (A) (A) (A) (A) (A) (A) (A) (A) (A)
                 (A) (A) (A) (A) (A) (A) (A) (A) (A) (A) (A) (A)
                 (A) (A) (A) (A) (A) (A) (A) (A) (A) (A) (A) (A)
                 (A) (A) (A) (A) (A) (A) (A) (A) (A) (A) (A) (A)
                 (A) (A) (A) (A) (A) (A) (A) (A) (A) (A) (A) (A)
                 (A) (A) (A) (A) (A) (A) (A) (A) (A) (A) (A) (A)
                 (A) (A) (A) (A) (A) (A) (A) (A) (A) (A) (A) (A)
                 (A) (A) (A) (A) (A) (A) (A) (A) (A) (A) (A) (A)
                 (A) (A) (A) (A) (A) (A) (A) (A) (A) (A) (A) (A)
                 (A) (A) (A) (A) (A) (A) (A) (A) (A) (A) (A) (A)
                 (A) (A) (A) (A) (A) (A) (A) (A) (A) (A) (A) (A)
                 (A) (A) (A) (A) (A) (A) (A) (A) (A) (A) (A) (A)
                 (A) (A) (A) (A) (A) (A) (A) (A) (A) (A) (A) (A)
                 (A) (A) (A) (A) (A) (A) (A) (A) (A) (A)
 The electronic state is 1-A.
 Alpha  occ. eigenvalues --  -38.43648 -19.17643 -19.17392 -19.17350 -19.17280
 Alpha  occ. eigenvalues --  -19.17217  -2.17111  -1.10512  -1.10387  -1.10375
 Alpha  occ. eigenvalues --   -1.03966  -1.03755  -1.03366  -1.03281  -1.03144
 Alpha  occ. eigenvalues --   -0.56181  -0.55378  -0.55213  -0.55071  -0.54989
 Alpha  occ. eigenvalues --   -0.43414  -0.42505  -0.41994  -0.41810  -0.41777
 Alpha  occ. eigenvalues --   -0.34482  -0.34279  -0.34147  -0.34064  -0.34055
 Alpha virt. eigenvalues --   -0.03698  -0.01687  -0.00989  -0.00461   0.01254
 Alpha virt. eigenvalues --    0.01835   0.01856   0.01963   0.02077   0.03433
 Alpha virt. eigenvalues --    0.03625   0.03957   0.04111   0.05601   0.05979
 Alpha virt. eigenvalues --    0.06275   0.06632   0.07701   0.11056   0.12018
 Alpha virt. eigenvalues --    0.12123   0.12329   0.12629   0.13001   0.13249
 Alpha virt. eigenvalues --    0.13985   0.14463   0.15033   0.15232   0.15526
 Alpha virt. eigenvalues --    0.15964   0.16177   0.16393   0.16997   0.17514
 Alpha virt. eigenvalues --    0.18047   0.18411   0.19559   0.20252   0.20518
 Alpha virt. eigenvalues --    0.21443   0.22479   0.24420   0.25224   0.25843
 Alpha virt. eigenvalues --    0.26161   0.26673   0.27988   0.29538   0.30020
 Alpha virt. eigenvalues --    0.31341   0.31808   0.32824   0.34400   0.35296
 Alpha virt. eigenvalues --    0.35872   0.36534   0.37785   0.38663   0.39610
 Alpha virt. eigenvalues --    0.39733   0.41122   0.41542   0.43425   0.43720
 Alpha virt. eigenvalues --    0.44384   0.45306   0.46133   0.46440   0.47040
 Alpha virt. eigenvalues --    0.47632   0.48157   0.48290   0.49615   0.49801
 Alpha virt. eigenvalues --    0.50442   0.51222   0.52136   0.53175   0.53646
 Alpha virt. eigenvalues --    0.54338   0.55937   0.57217   0.57782   0.59435
 Alpha virt. eigenvalues --    0.60373   0.61561   0.62040   0.64643   0.69702
 Alpha virt. eigenvalues --    0.69917   0.72049   0.72382   0.74087   0.75181
 Alpha virt. eigenvalues --    0.76013   0.82445   0.84103   0.85599   0.85822
 Alpha virt. eigenvalues --    0.87651   0.93476   0.94357   0.94797   0.97124
 Alpha virt. eigenvalues --    0.98380   0.99364   0.99466   1.00546   1.02072
 Alpha virt. eigenvalues --    1.03707   1.04541   1.06209   1.07090   1.07725
 Alpha virt. eigenvalues --    1.10274   1.16394   1.18851   1.19164   1.22076
 Alpha virt. eigenvalues --    1.23632   1.24591   1.27485   1.31373   1.31403
 Alpha virt. eigenvalues --    1.32626   1.34655   1.37948   1.40405   1.41375
 Alpha virt. eigenvalues --    1.44541   1.49768   1.58176   1.63285   1.64775
 Alpha virt. eigenvalues --    1.69553   1.75854   1.77995   1.78707   1.79615
 Alpha virt. eigenvalues --    1.80735   1.82361   1.85804   1.86349   1.87123
 Alpha virt. eigenvalues --    1.89856   1.90331   1.90552   1.91081   1.91705
 Alpha virt. eigenvalues --    1.93421   2.12377   2.13954   2.15632   2.16163
 Alpha virt. eigenvalues --    2.16609   2.17566   2.19081   2.19768   2.20624
 Alpha virt. eigenvalues --    2.21889   2.29738   2.33263   2.34676   2.35031
 Alpha virt. eigenvalues --    2.37959   2.47950   2.49718   2.54008   2.54369
 Alpha virt. eigenvalues --    2.55342   2.64424   2.73792   2.74355   2.78045
 Alpha virt. eigenvalues --    2.82212   2.95377   3.29791   3.30393   3.31301
 Alpha virt. eigenvalues --    3.31634   3.33163   3.33698   3.35177   3.35872
 Alpha virt. eigenvalues --    3.36417   3.38257   3.39299   3.41238   3.42432
 Alpha virt. eigenvalues --    3.43488   3.46755   3.67038   3.68329   3.71819
 Alpha virt. eigenvalues --    3.72725   3.73740   3.89601   3.89821   3.93638
 Alpha virt. eigenvalues --    3.94263   3.94361
          Condensed to atoms (all electrons):
               1          2          3          4          5          6
     1  O    7.888126   0.261258   0.387043  -0.006935  -0.000208  -0.015255
     2  H    0.261258   0.611149  -0.126219  -0.000012  -0.000247   0.001336
     3  H    0.387043  -0.126219   0.575604  -0.000617   0.001856   0.010951
     4  O   -0.006935  -0.000012  -0.000617   7.825344  -0.002447  -0.013487
     5  H   -0.000208  -0.000247   0.001856  -0.002447   0.560359   0.378492
     6  O   -0.015255   0.001336   0.010951  -0.013487   0.378492   7.975956
     7  H    0.002543   0.000391   0.001760   0.003975  -0.116031   0.255056
     8  H   -0.000982   0.000208  -0.000477   0.370995  -0.000415  -0.001522
     9  H   -0.000372   0.000088  -0.000046   0.298813   0.000041   0.002608
    10  O   -0.008998   0.003775  -0.002157  -0.033936  -0.000870  -0.008739
    11  H    0.000175   0.000205  -0.000255   0.000413  -0.000021  -0.000506
    12  H    0.000517   0.000380  -0.000620   0.002104  -0.000185  -0.000689
    13  H    0.003492   0.000836  -0.000216   0.002208   0.000848   0.003115
    14  O   -0.027195   0.004634  -0.005199  -0.007061   0.008722  -0.025090
    15  H    0.004190   0.000658   0.002307  -0.000429   0.002733  -0.001037
    16  Na  -0.077539   0.028698  -0.048680  -0.080352  -0.043535  -0.102529
               7          8          9         10         11         12
     1  O    0.002543  -0.000982  -0.000372  -0.008998   0.000175   0.000517
     2  H    0.000391   0.000208   0.000088   0.003775   0.000205   0.000380
     3  H    0.001760  -0.000477  -0.000046  -0.002157  -0.000255  -0.000620
     4  O    0.003975   0.370995   0.298813  -0.033936   0.000413   0.002104
     5  H   -0.116031  -0.000415   0.000041  -0.000870  -0.000021  -0.000185
     6  O    0.255056  -0.001522   0.002608  -0.008739  -0.000506  -0.000689
     7  H    0.592853  -0.000179   0.000362  -0.000593   0.000042  -0.000055
     8  H   -0.000179   0.587875  -0.102667   0.013062   0.001266   0.001448
     9  H    0.000362  -0.102667   0.585518   0.002146   0.000540   0.000426
    10  O   -0.000593   0.013062   0.002146   7.927763   0.304145   0.304665
    11  H    0.000042   0.001266   0.000540   0.304145   0.566130  -0.094612
    12  H   -0.000055   0.001448   0.000426   0.304665  -0.094612   0.570710
    13  H    0.000850   0.000306   0.000271  -0.000024  -0.000046   0.000129
    14  O    0.003107   0.000156   0.000561  -0.017071   0.002561   0.001003
    15  H   -0.000037  -0.000415  -0.000193   0.001093  -0.000045  -0.000166
    16  Na   0.027312  -0.043185   0.020935  -0.084277   0.009529   0.009790
              13         14         15         16
     1  O    0.003492  -0.027195   0.004190  -0.077539
     2  H    0.000836   0.004634   0.000658   0.028698
     3  H   -0.000216  -0.005199   0.002307  -0.048680
     4  O    0.002208  -0.007061  -0.000429  -0.080352
     5  H    0.000848   0.008722   0.002733  -0.043535
     6  O    0.003115  -0.025090  -0.001037  -0.102529
     7  H    0.000850   0.003107  -0.000037   0.027312
     8  H    0.000306   0.000156  -0.000415  -0.043185
     9  H    0.000271   0.000561  -0.000193   0.020935
    10  O   -0.000024  -0.017071   0.001093  -0.084277
    11  H   -0.000046   0.002561  -0.000045   0.009529
    12  H    0.000129   0.001003  -0.000166   0.009790
    13  H    0.603230   0.263026  -0.119301   0.028217
    14  O    0.263026   7.948566   0.363236  -0.087229
    15  H   -0.119301   0.363236   0.563140  -0.033807
    16  Na   0.028217  -0.087229  -0.033807  10.492476
 Mulliken charges:
               1
     1  O   -0.409861
     2  H    0.212862
     3  H    0.204965
     4  O   -0.358577
     5  H    0.210909
     6  O   -0.458662
     7  H    0.228644
     8  H    0.174525
     9  H    0.190968
    10  O   -0.399985
    11  H    0.210480
    12  H    0.205154
    13  H    0.213058
    14  O   -0.426728
    15  H    0.218073
    16  Na   0.984175
 Sum of Mulliken charges =   1.00000
 Mulliken charges with hydrogens summed into heavy atoms:
               1
     1  O    0.007967
     4  O    0.006916
     6  O   -0.019109
    10  O    0.015649
    14  O    0.004403
    16  Na   0.984175
 Electronic spatial extent (au):  <R**2>=           1157.3366
 Charge=              1.0000 electrons
 Dipole moment (field-independent basis, Debye):
    X=              0.4923    Y=             -0.7901    Z=              0.1317  Tot=              0.9402
 Quadrupole moment (field-independent basis, Debye-Ang):
   XX=             -9.2867   YY=            -15.1799   ZZ=            -24.6008
   XY=             -2.5878   XZ=             -0.1572   YZ=              0.0275
 Traceless Quadrupole moment (field-independent basis, Debye-Ang):
   XX=              7.0691   YY=              1.1759   ZZ=             -8.2450
   XY=             -2.5878   XZ=             -0.1572   YZ=              0.0275
 Octapole moment (field-independent basis, Debye-Ang**2):
  XXX=             27.2500  YYY=             14.8025  ZZZ=             10.5138  XYY=              9.2773
  XXY=             -0.4932  XXZ=             -2.3051  XZZ=            -15.8978  YZZ=            -19.3199
  YYZ=             -7.3420  XYZ=              0.6661
 Hexadecapole moment (field-independent basis, Debye-Ang**3):
 XXXX=           -487.2004 YYYY=           -240.7674 ZZZZ=           -135.0588 XXXY=            -23.3811
 XXXZ=              1.7652 YYYX=            -13.8762 YYYZ=              1.9879 ZZZX=            -11.8379
 ZZZY=             -2.1386 XXYY=            -43.6438 XXZZ=           -104.0489 YYZZ=            -67.5416
 XXYZ=              3.1270 YYXZ=             11.3429 ZZXY=              7.4034
 N-N= 3.019639537388D+02 E-N=-1.895850166661D+03  KE= 5.412816498735D+02
 SC-PCM: Using the SCF Density.
 SC-PCM: The equilibrium contribution to the free energy is   -0.077882714 a.u.
 SC-PCM: The total energy including the PCM contribution is      -544.542200165 a.u.
 SC-PCM: Erms=  0.58232D-06 Emax=  0.27519D-05 Qconv=  0.10000D-06
 SC-PCM: Iterating to achieve self-consistent PCM reaction field, IExtIt=   4.
 Standard basis: Aug-CC-pVDZ (5D, 7F)
 There are   244 symmetry adapted cartesian basis functions of A   symmetry.
 There are   232 symmetry adapted basis functions of A   symmetry.
   232 basis functions,   406 primitive gaussians,   244 cartesian basis functions
    30 alpha electrons       30 beta electrons
       nuclear repulsion energy       306.2929598202 Hartrees.
 NAtoms=   16 NActive=   16 NUniq=   16 SFac= 1.00D+00 NAtFMM=   60 NAOKFM=F Big=F
 Integral buffers will be    131072 words long.
 Raffenetti 2 integral format.
 Two-electron integral symmetry is turned on.
 Nuclei-solvent charges/DBFs interaction =        -4.3199944925 a.u.
 Nuclear repulsion after self-consistent solvent charges =      301.9729653277 Hartrees.
 Nuclear repulsion after empirical dispersion term =      301.9634010588 Hartrees.
 One-electron integrals computed using PRISM.
 NBasis=   232 RedAO= T EigKep=  1.91D-04  NBF=   232
 NBsUse=   232 1.00D-06 EigRej= -1.00D+00 NBFU=   232
 Initial guess from the checkpoint file:  "sim009_type3_coord-5_4-1-0_10C_b1_id81769_step4300_2.chk"
 SCF N**3 symmetry information disabled.
 B after Tr=     0.000000    0.000000    0.000000
         Rot=    1.000000    0.000000    0.000000    0.000000 Ang=   0.00 deg.
 Requested convergence on RMS density matrix=1.00D-08 within 500 cycles.
 Requested convergence on MAX density matrix=1.00D-06.
 Requested convergence on             energy=1.00D-06.
 No special actions if energy rises.
 SCF Done:  E(RB3LYP) =  -544.542199821     A.U. after    5 cycles
            NFock=  5  Conv=0.12D-08     -V/T= 2.0060

 **********************************************************************

            Population analysis using the SCF Density.

 **********************************************************************

 Orbital symmetries:
       Occupied  (A) (A) (A) (A) (A) (A) (A) (A) (A) (A) (A) (A)
                 (A) (A) (A) (A) (A) (A) (A) (A) (A) (A) (A) (A)
                 (A) (A) (A) (A) (A) (A)
       Virtual   (A) (A) (A) (A) (A) (A) (A) (A) (A) (A) (A) (A)
                 (A) (A) (A) (A) (A) (A) (A) (A) (A) (A) (A) (A)
                 (A) (A) (A) (A) (A) (A) (A) (A) (A) (A) (A) (A)
                 (A) (A) (A) (A) (A) (A) (A) (A) (A) (A) (A) (A)
                 (A) (A) (A) (A) (A) (A) (A) (A) (A) (A) (A) (A)
                 (A) (A) (A) (A) (A) (A) (A) (A) (A) (A) (A) (A)
                 (A) (A) (A) (A) (A) (A) (A) (A) (A) (A) (A) (A)
                 (A) (A) (A) (A) (A) (A) (A) (A) (A) (A) (A) (A)
                 (A) (A) (A) (A) (A) (A) (A) (A) (A) (A) (A) (A)
                 (A) (A) (A) (A) (A) (A) (A) (A) (A) (A) (A) (A)
                 (A) (A) (A) (A) (A) (A) (A) (A) (A) (A) (A) (A)
                 (A) (A) (A) (A) (A) (A) (A) (A) (A) (A) (A) (A)
                 (A) (A) (A) (A) (A) (A) (A) (A) (A) (A) (A) (A)
                 (A) (A) (A) (A) (A) (A) (A) (A) (A) (A) (A) (A)
                 (A) (A) (A) (A) (A) (A) (A) (A) (A) (A) (A) (A)
                 (A) (A) (A) (A) (A) (A) (A) (A) (A) (A) (A) (A)
                 (A) (A) (A) (A) (A) (A) (A) (A) (A) (A)
 The electronic state is 1-A.
 Alpha  occ. eigenvalues --  -38.43646 -19.17641 -19.17392 -19.17349 -19.17279
 Alpha  occ. eigenvalues --  -19.17216  -2.17109  -1.10510  -1.10384  -1.10373
 Alpha  occ. eigenvalues --   -1.03965  -1.03754  -1.03365  -1.03280  -1.03143
 Alpha  occ. eigenvalues --   -0.56180  -0.55377  -0.55211  -0.55071  -0.54988
 Alpha  occ. eigenvalues --   -0.43413  -0.42504  -0.41993  -0.41809  -0.41776
 Alpha  occ. eigenvalues --   -0.34481  -0.34278  -0.34146  -0.34063  -0.34054
 Alpha virt. eigenvalues --   -0.03697  -0.01686  -0.00988  -0.00461   0.01254
 Alpha virt. eigenvalues --    0.01835   0.01856   0.01963   0.02077   0.03434
 Alpha virt. eigenvalues --    0.03625   0.03958   0.04112   0.05601   0.05979
 Alpha virt. eigenvalues --    0.06275   0.06632   0.07701   0.11056   0.12018
 Alpha virt. eigenvalues --    0.12124   0.12330   0.12630   0.13002   0.13250
 Alpha virt. eigenvalues --    0.13986   0.14463   0.15033   0.15233   0.15527
 Alpha virt. eigenvalues --    0.15964   0.16178   0.16394   0.16998   0.17514
 Alpha virt. eigenvalues --    0.18047   0.18411   0.19559   0.20253   0.20519
 Alpha virt. eigenvalues --    0.21444   0.22479   0.24420   0.25225   0.25844
 Alpha virt. eigenvalues --    0.26162   0.26674   0.27988   0.29539   0.30021
 Alpha virt. eigenvalues --    0.31342   0.31809   0.32825   0.34401   0.35297
 Alpha virt. eigenvalues --    0.35873   0.36535   0.37786   0.38663   0.39611
 Alpha virt. eigenvalues --    0.39734   0.41123   0.41543   0.43425   0.43721
 Alpha virt. eigenvalues --    0.44384   0.45306   0.46134   0.46441   0.47041
 Alpha virt. eigenvalues --    0.47633   0.48158   0.48291   0.49616   0.49801
 Alpha virt. eigenvalues --    0.50443   0.51223   0.52137   0.53176   0.53647
 Alpha virt. eigenvalues --    0.54339   0.55938   0.57218   0.57783   0.59436
 Alpha virt. eigenvalues --    0.60373   0.61561   0.62041   0.64643   0.69703
 Alpha virt. eigenvalues --    0.69917   0.72050   0.72383   0.74087   0.75182
 Alpha virt. eigenvalues --    0.76014   0.82445   0.84104   0.85600   0.85822
 Alpha virt. eigenvalues --    0.87652   0.93477   0.94358   0.94798   0.97124
 Alpha virt. eigenvalues --    0.98381   0.99365   0.99467   1.00547   1.02073
 Alpha virt. eigenvalues --    1.03708   1.04542   1.06210   1.07091   1.07726
 Alpha virt. eigenvalues --    1.10274   1.16395   1.18852   1.19165   1.22077
 Alpha virt. eigenvalues --    1.23633   1.24592   1.27486   1.31374   1.31404
 Alpha virt. eigenvalues --    1.32626   1.34656   1.37949   1.40406   1.41376
 Alpha virt. eigenvalues --    1.44542   1.49769   1.58177   1.63287   1.64776
 Alpha virt. eigenvalues --    1.69554   1.75856   1.77995   1.78708   1.79616
 Alpha virt. eigenvalues --    1.80736   1.82362   1.85805   1.86349   1.87124
 Alpha virt. eigenvalues --    1.89857   1.90332   1.90553   1.91082   1.91706
 Alpha virt. eigenvalues --    1.93421   2.12378   2.13955   2.15632   2.16163
 Alpha virt. eigenvalues --    2.16610   2.17567   2.19082   2.19769   2.20624
 Alpha virt. eigenvalues --    2.21890   2.29739   2.33263   2.34677   2.35032
 Alpha virt. eigenvalues --    2.37960   2.47951   2.49718   2.54009   2.54369
 Alpha virt. eigenvalues --    2.55343   2.64425   2.73793   2.74356   2.78046
 Alpha virt. eigenvalues --    2.82213   2.95379   3.29793   3.30394   3.31302
 Alpha virt. eigenvalues --    3.31635   3.33164   3.33699   3.35178   3.35873
 Alpha virt. eigenvalues --    3.36418   3.38258   3.39300   3.41239   3.42433
 Alpha virt. eigenvalues --    3.43489   3.46756   3.67039   3.68330   3.71820
 Alpha virt. eigenvalues --    3.72726   3.73741   3.89602   3.89823   3.93639
 Alpha virt. eigenvalues --    3.94264   3.94362
          Condensed to atoms (all electrons):
               1          2          3          4          5          6
     1  O    7.888137   0.261254   0.387043  -0.006935  -0.000208  -0.015254
     2  H    0.261254   0.611157  -0.126219  -0.000012  -0.000248   0.001336
     3  H    0.387043  -0.126219   0.575618  -0.000617   0.001856   0.010952
     4  O   -0.006935  -0.000012  -0.000617   7.825363  -0.002447  -0.013488
     5  H   -0.000208  -0.000248   0.001856  -0.002447   0.560367   0.378494
     6  O   -0.015254   0.001336   0.010952  -0.013488   0.378494   7.975967
     7  H    0.002543   0.000391   0.001760   0.003975  -0.116031   0.255051
     8  H   -0.000982   0.000208  -0.000478   0.370991  -0.000415  -0.001522
     9  H   -0.000372   0.000088  -0.000046   0.298809   0.000041   0.002608
    10  O   -0.008997   0.003775  -0.002158  -0.033938  -0.000870  -0.008739
    11  H    0.000175   0.000205  -0.000255   0.000413  -0.000021  -0.000506
    12  H    0.000518   0.000380  -0.000620   0.002105  -0.000186  -0.000689
    13  H    0.003492   0.000836  -0.000216   0.002208   0.000848   0.003115
    14  O   -0.027194   0.004634  -0.005199  -0.007062   0.008722  -0.025088
    15  H    0.004190   0.000658   0.002307  -0.000429   0.002733  -0.001036
    16  Na  -0.077552   0.028699  -0.048682  -0.080368  -0.043537  -0.102542
               7          8          9         10         11         12
     1  O    0.002543  -0.000982  -0.000372  -0.008997   0.000175   0.000518
     2  H    0.000391   0.000208   0.000088   0.003775   0.000205   0.000380
     3  H    0.001760  -0.000478  -0.000046  -0.002158  -0.000255  -0.000620
     4  O    0.003975   0.370991   0.298809  -0.033938   0.000413   0.002105
     5  H   -0.116031  -0.000415   0.000041  -0.000870  -0.000021  -0.000186
     6  O    0.255051  -0.001522   0.002608  -0.008739  -0.000506  -0.000689
     7  H    0.592864  -0.000179   0.000362  -0.000593   0.000042  -0.000055
     8  H   -0.000179   0.587884  -0.102666   0.013062   0.001266   0.001448
     9  H    0.000362  -0.102666   0.585536   0.002147   0.000540   0.000426
    10  O   -0.000593   0.013062   0.002147   7.927788   0.304141   0.304660
    11  H    0.000042   0.001266   0.000540   0.304141   0.566139  -0.094611
    12  H   -0.000055   0.001448   0.000426   0.304660  -0.094611   0.570719
    13  H    0.000850   0.000306   0.000271  -0.000024  -0.000046   0.000129
    14  O    0.003107   0.000156   0.000561  -0.017069   0.002561   0.001003
    15  H   -0.000037  -0.000415  -0.000193   0.001092  -0.000045  -0.000166
    16  Na   0.027314  -0.043182   0.020937  -0.084292   0.009530   0.009791
              13         14         15         16
     1  O    0.003492  -0.027194   0.004190  -0.077552
     2  H    0.000836   0.004634   0.000658   0.028699
     3  H   -0.000216  -0.005199   0.002307  -0.048682
     4  O    0.002208  -0.007062  -0.000429  -0.080368
     5  H    0.000848   0.008722   0.002733  -0.043537
     6  O    0.003115  -0.025088  -0.001036  -0.102542
     7  H    0.000850   0.003107  -0.000037   0.027314
     8  H    0.000306   0.000156  -0.000415  -0.043182
     9  H    0.000271   0.000561  -0.000193   0.020937
    10  O   -0.000024  -0.017069   0.001092  -0.084292
    11  H   -0.000046   0.002561  -0.000045   0.009530
    12  H    0.000129   0.001003  -0.000166   0.009791
    13  H    0.603238   0.263023  -0.119300   0.028217
    14  O    0.263023   7.948571   0.363236  -0.087237
    15  H   -0.119300   0.363236   0.563149  -0.033807
    16  Na   0.028217  -0.087237  -0.033807  10.492458
 Mulliken charges:
               1
     1  O   -0.409859
     2  H    0.212857
     3  H    0.204952
     4  O   -0.358567
     5  H    0.210900
     6  O   -0.458659
     7  H    0.228637
     8  H    0.174516
     9  H    0.190951
    10  O   -0.399987
    11  H    0.210472
    12  H    0.205146
    13  H    0.213051
    14  O   -0.426726
    15  H    0.218064
    16  Na   0.984252
 Sum of Mulliken charges =   1.00000
 Mulliken charges with hydrogens summed into heavy atoms:
               1
     1  O    0.007951
     4  O    0.006899
     6  O   -0.019123
    10  O    0.015632
    14  O    0.004389
    16  Na   0.984252
 Electronic spatial extent (au):  <R**2>=           1157.3396
 Charge=              1.0000 electrons
 Dipole moment (field-independent basis, Debye):
    X=              0.4926    Y=             -0.7901    Z=              0.1316  Tot=              0.9404
 Quadrupole moment (field-independent basis, Debye-Ang):
   XX=             -9.2900   YY=            -15.1806   ZZ=            -24.6009
   XY=             -2.5880   XZ=             -0.1571   YZ=              0.0275
 Traceless Quadrupole moment (field-independent basis, Debye-Ang):
   XX=              7.0672   YY=              1.1766   ZZ=             -8.2438
   XY=             -2.5880   XZ=             -0.1571   YZ=              0.0275
 Octapole moment (field-independent basis, Debye-Ang**2):
  XXX=             27.2500  YYY=             14.8017  ZZZ=             10.5133  XYY=              9.2767
  XXY=             -0.4931  XXZ=             -2.3051  XZZ=            -15.8966  YZZ=            -19.3196
  YYZ=             -7.3419  XYZ=              0.6661
 Hexadecapole moment (field-independent basis, Debye-Ang**3):
 XXXX=           -487.2329 YYYY=           -240.7737 ZZZZ=           -135.0605 XXXY=            -23.3810
 XXXZ=              1.7649 YYYX=            -13.8779 YYYZ=              1.9877 ZZZX=            -11.8369
 ZZZY=             -2.1385 XXYY=            -43.6544 XXZZ=           -104.0536 YYZZ=            -67.5425
 XXYZ=              3.1269 YYXZ=             11.3424 ZZXY=              7.4024
 N-N= 3.019634010588D+02 E-N=-1.895849809958D+03  KE= 5.412816600099D+02
 SC-PCM: Using the SCF Density.
 SC-PCM: The equilibrium contribution to the free energy is   -0.077883405 a.u.
 SC-PCM: The total energy including the PCM contribution is      -544.542200167 a.u.
 SC-PCM: Erms=  0.11220D-06 Emax=  0.51968D-06 Qconv=  0.10000D-06
 SC-PCM: Iterating to achieve self-consistent PCM reaction field, IExtIt=   5.
 Standard basis: Aug-CC-pVDZ (5D, 7F)
 There are   244 symmetry adapted cartesian basis functions of A   symmetry.
 There are   232 symmetry adapted basis functions of A   symmetry.
   232 basis functions,   406 primitive gaussians,   244 cartesian basis functions
    30 alpha electrons       30 beta electrons
       nuclear repulsion energy       306.2929598202 Hartrees.
 NAtoms=   16 NActive=   16 NUniq=   16 SFac= 1.00D+00 NAtFMM=   60 NAOKFM=F Big=F
 Integral buffers will be    131072 words long.
 Raffenetti 2 integral format.
 Two-electron integral symmetry is turned on.
 Nuclei-solvent charges/DBFs interaction =        -4.3200962505 a.u.
 Nuclear repulsion after self-consistent solvent charges =      301.9728635697 Hartrees.
 Nuclear repulsion after empirical dispersion term =      301.9632993008 Hartrees.
 One-electron integrals computed using PRISM.
 NBasis=   232 RedAO= T EigKep=  1.91D-04  NBF=   232
 NBsUse=   232 1.00D-06 EigRej= -1.00D+00 NBFU=   232
 Initial guess from the checkpoint file:  "sim009_type3_coord-5_4-1-0_10C_b1_id81769_step4300_2.chk"
 SCF N**3 symmetry information disabled.
 B after Tr=     0.000000    0.000000    0.000000
         Rot=    1.000000    0.000000    0.000000    0.000000 Ang=   0.00 deg.
 Requested convergence on RMS density matrix=1.00D-08 within 500 cycles.
 Requested convergence on MAX density matrix=1.00D-06.
 Requested convergence on             energy=1.00D-06.
 No special actions if energy rises.
 SCF Done:  E(RB3LYP) =  -544.542200103     A.U. after    3 cycles
            NFock=  3  Conv=0.62D-08     -V/T= 2.0060

 **********************************************************************

            Population analysis using the SCF Density.

 **********************************************************************

 Orbital symmetries:
       Occupied  (A) (A) (A) (A) (A) (A) (A) (A) (A) (A) (A) (A)
                 (A) (A) (A) (A) (A) (A) (A) (A) (A) (A) (A) (A)
                 (A) (A) (A) (A) (A) (A)
       Virtual   (A) (A) (A) (A) (A) (A) (A) (A) (A) (A) (A) (A)
                 (A) (A) (A) (A) (A) (A) (A) (A) (A) (A) (A) (A)
                 (A) (A) (A) (A) (A) (A) (A) (A) (A) (A) (A) (A)
                 (A) (A) (A) (A) (A) (A) (A) (A) (A) (A) (A) (A)
                 (A) (A) (A) (A) (A) (A) (A) (A) (A) (A) (A) (A)
                 (A) (A) (A) (A) (A) (A) (A) (A) (A) (A) (A) (A)
                 (A) (A) (A) (A) (A) (A) (A) (A) (A) (A) (A) (A)
                 (A) (A) (A) (A) (A) (A) (A) (A) (A) (A) (A) (A)
                 (A) (A) (A) (A) (A) (A) (A) (A) (A) (A) (A) (A)
                 (A) (A) (A) (A) (A) (A) (A) (A) (A) (A) (A) (A)
                 (A) (A) (A) (A) (A) (A) (A) (A) (A) (A) (A) (A)
                 (A) (A) (A) (A) (A) (A) (A) (A) (A) (A) (A) (A)
                 (A) (A) (A) (A) (A) (A) (A) (A) (A) (A) (A) (A)
                 (A) (A) (A) (A) (A) (A) (A) (A) (A) (A) (A) (A)
                 (A) (A) (A) (A) (A) (A) (A) (A) (A) (A) (A) (A)
                 (A) (A) (A) (A) (A) (A) (A) (A) (A) (A) (A) (A)
                 (A) (A) (A) (A) (A) (A) (A) (A) (A) (A)
 The electronic state is 1-A.
 Alpha  occ. eigenvalues --  -38.43645 -19.17641 -19.17392 -19.17349 -19.17279
 Alpha  occ. eigenvalues --  -19.17216  -2.17108  -1.10509  -1.10383  -1.10372
 Alpha  occ. eigenvalues --   -1.03965  -1.03754  -1.03365  -1.03280  -1.03143
 Alpha  occ. eigenvalues --   -0.56180  -0.55377  -0.55211  -0.55071  -0.54988
 Alpha  occ. eigenvalues --   -0.43413  -0.42503  -0.41992  -0.41809  -0.41776
 Alpha  occ. eigenvalues --   -0.34481  -0.34278  -0.34145  -0.34062  -0.34053
 Alpha virt. eigenvalues --   -0.03697  -0.01686  -0.00988  -0.00460   0.01254
 Alpha virt. eigenvalues --    0.01835   0.01856   0.01963   0.02077   0.03434
 Alpha virt. eigenvalues --    0.03625   0.03958   0.04112   0.05601   0.05979
 Alpha virt. eigenvalues --    0.06275   0.06632   0.07701   0.11056   0.12018
 Alpha virt. eigenvalues --    0.12124   0.12330   0.12630   0.13003   0.13250
 Alpha virt. eigenvalues --    0.13987   0.14464   0.15033   0.15233   0.15527
 Alpha virt. eigenvalues --    0.15964   0.16178   0.16394   0.16998   0.17514
 Alpha virt. eigenvalues --    0.18047   0.18412   0.19559   0.20253   0.20519
 Alpha virt. eigenvalues --    0.21444   0.22480   0.24420   0.25225   0.25844
 Alpha virt. eigenvalues --    0.26162   0.26674   0.27988   0.29539   0.30022
 Alpha virt. eigenvalues --    0.31342   0.31809   0.32826   0.34401   0.35297
 Alpha virt. eigenvalues --    0.35874   0.36535   0.37786   0.38663   0.39612
 Alpha virt. eigenvalues --    0.39734   0.41123   0.41543   0.43425   0.43721
 Alpha virt. eigenvalues --    0.44384   0.45306   0.46134   0.46441   0.47041
 Alpha virt. eigenvalues --    0.47633   0.48158   0.48291   0.49616   0.49801
 Alpha virt. eigenvalues --    0.50443   0.51223   0.52137   0.53176   0.53647
 Alpha virt. eigenvalues --    0.54339   0.55938   0.57218   0.57783   0.59436
 Alpha virt. eigenvalues --    0.60373   0.61561   0.62041   0.64644   0.69703
 Alpha virt. eigenvalues --    0.69917   0.72050   0.72383   0.74087   0.75182
 Alpha virt. eigenvalues --    0.76014   0.82445   0.84104   0.85600   0.85823
 Alpha virt. eigenvalues --    0.87652   0.93477   0.94359   0.94798   0.97125
 Alpha virt. eigenvalues --    0.98381   0.99366   0.99467   1.00547   1.02073
 Alpha virt. eigenvalues --    1.03708   1.04542   1.06211   1.07091   1.07726
 Alpha virt. eigenvalues --    1.10274   1.16395   1.18852   1.19165   1.22077
 Alpha virt. eigenvalues --    1.23634   1.24592   1.27486   1.31374   1.31404
 Alpha virt. eigenvalues --    1.32626   1.34656   1.37949   1.40407   1.41376
 Alpha virt. eigenvalues --    1.44543   1.49769   1.58177   1.63287   1.64776
 Alpha virt. eigenvalues --    1.69554   1.75856   1.77995   1.78708   1.79616
 Alpha virt. eigenvalues --    1.80736   1.82362   1.85805   1.86349   1.87124
 Alpha virt. eigenvalues --    1.89857   1.90332   1.90553   1.91082   1.91706
 Alpha virt. eigenvalues --    1.93421   2.12378   2.13955   2.15633   2.16164
 Alpha virt. eigenvalues --    2.16610   2.17567   2.19082   2.19769   2.20625
 Alpha virt. eigenvalues --    2.21890   2.29740   2.33263   2.34677   2.35032
 Alpha virt. eigenvalues --    2.37960   2.47952   2.49719   2.54009   2.54370
 Alpha virt. eigenvalues --    2.55343   2.64426   2.73793   2.74356   2.78046
 Alpha virt. eigenvalues --    2.82214   2.95379   3.29793   3.30394   3.31302
 Alpha virt. eigenvalues --    3.31635   3.33164   3.33699   3.35178   3.35873
 Alpha virt. eigenvalues --    3.36418   3.38258   3.39300   3.41239   3.42433
 Alpha virt. eigenvalues --    3.43489   3.46756   3.67040   3.68330   3.71820
 Alpha virt. eigenvalues --    3.72726   3.73741   3.89603   3.89823   3.93639
 Alpha virt. eigenvalues --    3.94264   3.94362
          Condensed to atoms (all electrons):
               1          2          3          4          5          6
     1  O    7.888139   0.261253   0.387043  -0.006936  -0.000208  -0.015254
     2  H    0.261253   0.611158  -0.126219  -0.000012  -0.000248   0.001336
     3  H    0.387043  -0.126219   0.575621  -0.000617   0.001856   0.010952
     4  O   -0.006936  -0.000012  -0.000617   7.825367  -0.002447  -0.013488
     5  H   -0.000208  -0.000248   0.001856  -0.002447   0.560369   0.378495
     6  O   -0.015254   0.001336   0.010952  -0.013488   0.378495   7.975969
     7  H    0.002543   0.000391   0.001760   0.003975  -0.116031   0.255050
     8  H   -0.000982   0.000208  -0.000478   0.370991  -0.000415  -0.001522
     9  H   -0.000372   0.000088  -0.000046   0.298809   0.000041   0.002608
    10  O   -0.008997   0.003775  -0.002158  -0.033939  -0.000870  -0.008739
    11  H    0.000175   0.000205  -0.000255   0.000413  -0.000021  -0.000506
    12  H    0.000518   0.000380  -0.000620   0.002105  -0.000186  -0.000689
    13  H    0.003492   0.000836  -0.000216   0.002208   0.000848   0.003115
    14  O   -0.027193   0.004634  -0.005199  -0.007062   0.008722  -0.025088
    15  H    0.004191   0.000658   0.002307  -0.000429   0.002733  -0.001036
    16  Na  -0.077554   0.028700  -0.048682  -0.080371  -0.043537  -0.102544
               7          8          9         10         11         12
     1  O    0.002543  -0.000982  -0.000372  -0.008997   0.000175   0.000518
     2  H    0.000391   0.000208   0.000088   0.003775   0.000205   0.000380
     3  H    0.001760  -0.000478  -0.000046  -0.002158  -0.000255  -0.000620
     4  O    0.003975   0.370991   0.298809  -0.033939   0.000413   0.002105
     5  H   -0.116031  -0.000415   0.000041  -0.000870  -0.000021  -0.000186
     6  O    0.255050  -0.001522   0.002608  -0.008739  -0.000506  -0.000689
     7  H    0.592865  -0.000179   0.000362  -0.000593   0.000042  -0.000055
     8  H   -0.000179   0.587886  -0.102665   0.013062   0.001266   0.001448
     9  H    0.000362  -0.102665   0.585539   0.002147   0.000540   0.000426
    10  O   -0.000593   0.013062   0.002147   7.927793   0.304141   0.304659
    11  H    0.000042   0.001266   0.000540   0.304141   0.566140  -0.094611
    12  H   -0.000055   0.001448   0.000426   0.304659  -0.094611   0.570721
    13  H    0.000850   0.000306   0.000271  -0.000024  -0.000046   0.000129
    14  O    0.003107   0.000156   0.000561  -0.017068   0.002561   0.001003
    15  H   -0.000037  -0.000415  -0.000193   0.001092  -0.000045  -0.000166
    16  Na   0.027314  -0.043181   0.020937  -0.084294   0.009530   0.009791
              13         14         15         16
     1  O    0.003492  -0.027193   0.004191  -0.077554
     2  H    0.000836   0.004634   0.000658   0.028700
     3  H   -0.000216  -0.005199   0.002307  -0.048682
     4  O    0.002208  -0.007062  -0.000429  -0.080371
     5  H    0.000848   0.008722   0.002733  -0.043537
     6  O    0.003115  -0.025088  -0.001036  -0.102544
     7  H    0.000850   0.003107  -0.000037   0.027314
     8  H    0.000306   0.000156  -0.000415  -0.043181
     9  H    0.000271   0.000561  -0.000193   0.020937
    10  O   -0.000024  -0.017068   0.001092  -0.084294
    11  H   -0.000046   0.002561  -0.000045   0.009530
    12  H    0.000129   0.001003  -0.000166   0.009791
    13  H    0.603240   0.263022  -0.119300   0.028218
    14  O    0.263022   7.948572   0.363236  -0.087239
    15  H   -0.119300   0.363236   0.563151  -0.033807
    16  Na   0.028218  -0.087239  -0.033807  10.492455
 Mulliken charges:
               1
     1  O   -0.409858
     2  H    0.212856
     3  H    0.204950
     4  O   -0.358565
     5  H    0.210898
     6  O   -0.458659
     7  H    0.228636
     8  H    0.174514
     9  H    0.190948
    10  O   -0.399987
    11  H    0.210471
    12  H    0.205145
    13  H    0.213050
    14  O   -0.426725
    15  H    0.218061
    16  Na   0.984266
 Sum of Mulliken charges =   1.00000
 Mulliken charges with hydrogens summed into heavy atoms:
               1
     1  O    0.007948
     4  O    0.006896
     6  O   -0.019125
    10  O    0.015629
    14  O    0.004386
    16  Na   0.984266
 Electronic spatial extent (au):  <R**2>=           1157.3402
 Charge=              1.0000 electrons
 Dipole moment (field-independent basis, Debye):
    X=              0.4926    Y=             -0.7901    Z=              0.1316  Tot=              0.9404
 Quadrupole moment (field-independent basis, Debye-Ang):
   XX=             -9.2906   YY=            -15.1807   ZZ=            -24.6010
   XY=             -2.5880   XZ=             -0.1571   YZ=              0.0275
 Traceless Quadrupole moment (field-independent basis, Debye-Ang):
   XX=              7.0668   YY=              1.1767   ZZ=             -8.2435
   XY=             -2.5880   XZ=             -0.1571   YZ=              0.0275
 Octapole moment (field-independent basis, Debye-Ang**2):
  XXX=             27.2501  YYY=             14.8016  ZZZ=             10.5132  XYY=              9.2766
  XXY=             -0.4931  XXZ=             -2.3051  XZZ=            -15.8963  YZZ=            -19.3196
  YYZ=             -7.3418  XYZ=              0.6661
 Hexadecapole moment (field-independent basis, Debye-Ang**3):
 XXXX=           -487.2395 YYYY=           -240.7747 ZZZZ=           -135.0608 XXXY=            -23.3809
 XXXZ=              1.7649 YYYX=            -13.8781 YYYZ=              1.9877 ZZZX=            -11.8367
 ZZZY=             -2.1384 XXYY=            -43.6564 XXZZ=           -104.0546 YYZZ=            -67.5426
 XXYZ=              3.1268 YYXZ=             11.3423 ZZXY=              7.4022
 N-N= 3.019632993008D+02 E-N=-1.895849734709D+03  KE= 5.412816580708D+02
 SC-PCM: Using the SCF Density.
 SC-PCM: The equilibrium contribution to the free energy is   -0.077883535 a.u.
 SC-PCM: The total energy including the PCM contribution is      -544.542200169 a.u.
 SC-PCM: Erms=  0.22139D-07 Emax=  0.10018D-06 Qconv=  0.10000D-06
 SC-PCM: Convergence achieved in   6 iterations.
 SC-PCM: The reaction field is now self-consistent.
 Error on total polarization charges =  0.01105
 --------------------------------------------------------------------
 Self-consistent PCM results
 ===========================
 <psi(0)|   H    |psi(0)>                     (a.u.) =    -544.464577
 <psi(0)|H+V(0)/2|psi(0)>                     (a.u.) =    -544.541960
 <psi(0)|H+V(f)/2|psi(0)>                     (a.u.) =    -544.542460
 <psi(f)|   H    |psi(f)>                     (a.u.) =    -544.464317
 <psi(f)|H+V(f)/2|psi(f)>                     (a.u.) =    -544.542200
 Total free energy in solution:
 - with all non electrostatic terms           (a.u.) =    -544.520931
 --------------------------------------------------------------------
 (Unpolarized solute)-Solvent             (kcal/mol) =     -48.56
 (Polarized solute)-Solvent               (kcal/mol) =     -48.87
 Solute polarization                      (kcal/mol) =       0.16
 Total electrostatic                      (kcal/mol) =     -48.71
 --------------------------------------------------------------------
 Cavitation energy                        (kcal/mol) =      25.11
 Dispersion energy                        (kcal/mol) =     -12.71
 Repulsion energy                         (kcal/mol) =       0.94
 Total non electrostatic                  (kcal/mol) =      13.35
 DeltaG (solv)                            (kcal/mol) =     -35.36
 --------------------------------------------------------------------
 Dipole moment (Debye):
 in vacuo    : X=  0.4596 Y= -0.7398 Z=  0.1339 Tot=  0.8812
 in solution : X=  0.4926 Y= -0.7901 Z=  0.1316 Tot=  0.9404
 --------------------------------------------------------------------
 Partition over spheres:
 Sphere  on Atom  Surface  Charge   GEl     GCav    GDR
    1      O1      14.27   0.027    0.94    1.61   -0.43
    2      H2      14.36  -0.114   -5.13    1.70   -1.13
    3      H3       9.73  -0.066   -2.93    1.23   -0.70
    4      O4      18.08   0.056    1.78    2.01   -0.80
    5      H5      10.44  -0.074   -3.36    1.32   -0.75
    6      O6      13.72   0.021    0.66    1.58   -0.37
    7      H7      14.34  -0.116   -5.17    1.70   -1.12
    8      H8      11.08  -0.080   -3.55    1.42   -0.77
    9      H9      14.38  -0.117   -5.07    1.69   -1.07
   10      O10     15.48   0.008    0.06    1.78   -0.23
   11      H11     14.40  -0.118   -5.55    1.71   -1.05
   12      H12     14.39  -0.118   -5.54    1.71   -1.06
   13      H13     14.41  -0.116   -5.24    1.70   -1.16
   14      O14     14.28   0.021    0.68    1.60   -0.36
   15      H15     10.22  -0.072   -3.25    1.32   -0.73
   16     Na16      5.39  -0.140   -8.20    1.02   -0.04
 --------------------------------------------------------------------
 After PCM corrections, the energy is  -544.520930739     a.u.
 --------------------------------------------------------------------
 1\1\GINC-N685\SP\RB3LYP\Aug-CC-pVDZ\H10Na1O5(1+)\HNR2\18-Jul-2022\0\\#
  geom=check scrf=(solvent=water,iefpcm,externaliteration,1stvac,read) 
 rb3lyp/aug-cc-pvdz empiricaldispersion=gd3 scf=(maxcycle=500) int(Acc2
 E=11,grid=ultrafine)\\MD frame sim009_type3_coord-5_4-1-0_10C_b1_id817
 69_step4300\\1,1\O,-0.8097629848,1.2508983396,-1.7478075939\H,-0.88384
 50691,1.3702620736,-2.702486499\H,-0.7899408553,2.1401595001,-1.364007
 5876\O,2.2076910482,-0.5678158632,1.1324065533\H,-1.1176310863,2.00261
 90344,1.3290105732\O,-0.2842739747,2.20913698,0.8820114484\H,0.0958629
 152,2.957523307,1.3586368533\H,2.5816159545,-1.3936419748,0.7982909145
 \H,2.7769983441,-0.2925240911,1.8608737325\O,0.9954074002,-2.020730084
 ,-1.1210938267\H,0.5456991333,-2.869778629,-1.016786171\H,1.4424589125
 ,-2.0847138335,-1.9755414832\H,-2.6607704308,-0.6335172435,0.990353599
 9\O,-1.9984020587,-0.1093647175,0.5233521007\H,-2.4048257121,0.1543666
 079,-0.3149305926\Na,0.3181984638,0.0334905942,-0.0208620217\\Version=
 ES64L-G16RevB.01\State=1-A\HF=-544.5422001\RMSD=6.171e-09\Dipole=-0.03
 69419,-0.3072624,-0.2027516\Quadrupole=-0.2263169,2.2848755,-2.0585586
 ,-4.1983173,1.395311,3.5150204\PG=C01 [X(H10Na1O5)]\\@


 Sometimes the fool who rushes in gets the job done.
                                    -- Al Bernstein
 Job cpu time:       0 days  0 hours 47 minutes 19.4 seconds.
 Elapsed time:       0 days  0 hours  1 minutes 14.3 seconds.
 File lengths (MBytes):  RWF=     79 Int=      0 D2E=      0 Chk=      6 Scr=      1
 Normal termination of Gaussian 16 at Mon Jul 18 20:56:42 2022.
