 Entering Gaussian System, Link 0=g16
 Initial command:
 /share/sw/gaussian/g16_B.01_avx2-enabled/g16/l1.exe "/scratch/hnr2/2615640/Gau-19790.inp" -scrdir="/scratch/hnr2/2615640/"
 Entering Link 1 = /share/sw/gaussian/g16_B.01_avx2-enabled/g16/l1.exe PID=     19791.
  
 Copyright (c) 1988-2017, Gaussian, Inc.  All Rights Reserved.
  
 This is part of the Gaussian(R) 16 program.  It is based on
 the Gaussian(R) 09 system (copyright 2009, Gaussian, Inc.),
 the Gaussian(R) 03 system (copyright 2003, Gaussian, Inc.),
 the Gaussian(R) 98 system (copyright 1998, Gaussian, Inc.),
 the Gaussian(R) 94 system (copyright 1995, Gaussian, Inc.),
 the Gaussian 92(TM) system (copyright 1992, Gaussian, Inc.),
 the Gaussian 90(TM) system (copyright 1990, Gaussian, Inc.),
 the Gaussian 88(TM) system (copyright 1988, Gaussian, Inc.),
 the Gaussian 86(TM) system (copyright 1986, Carnegie Mellon
 University), and the Gaussian 82(TM) system (copyright 1983,
 Carnegie Mellon University). Gaussian is a federally registered
 trademark of Gaussian, Inc.
  
 This software contains proprietary and confidential information,
 including trade secrets, belonging to Gaussian, Inc.
  
 This software is provided under written license and may be
 used, copied, transmitted, or stored only in accord with that
 written license.
  
 The following legend is applicable only to US Government
 contracts under FAR:
  
                    RESTRICTED RIGHTS LEGEND
  
 Use, reproduction and disclosure by the US Government is
 subject to restrictions as set forth in subparagraphs (a)
 and (c) of the Commercial Computer Software - Restricted
 Rights clause in FAR 52.227-19.
  
 Gaussian, Inc.
 340 Quinnipiac St., Bldg. 40, Wallingford CT 06492
  
  
 ---------------------------------------------------------------
 Warning -- This program may not be used in any manner that
 competes with the business of Gaussian, Inc. or will provide
 assistance to any competitor of Gaussian, Inc.  The licensee
 of this program is prohibited from giving any competitor of
 Gaussian, Inc. access to this program.  By using this program,
 the user acknowledges that Gaussian, Inc. is engaged in the
 business of creating and licensing software in the field of
 computational chemistry and represents and warrants to the
 licensee that it is not a competitor of Gaussian, Inc. and that
 it will not use this program in any manner prohibited above.
 ---------------------------------------------------------------
  

 Cite this work as:
 Gaussian 16, Revision B.01,
 M. J. Frisch, G. W. Trucks, H. B. Schlegel, G. E. Scuseria, 
 M. A. Robb, J. R. Cheeseman, G. Scalmani, V. Barone, 
 G. A. Petersson, H. Nakatsuji, X. Li, M. Caricato, A. V. Marenich, 
 J. Bloino, B. G. Janesko, R. Gomperts, B. Mennucci, H. P. Hratchian, 
 J. V. Ortiz, A. F. Izmaylov, J. L. Sonnenberg, D. Williams-Young, 
 F. Ding, F. Lipparini, F. Egidi, J. Goings, B. Peng, A. Petrone, 
 T. Henderson, D. Ranasinghe, V. G. Zakrzewski, J. Gao, N. Rega, 
 G. Zheng, W. Liang, M. Hada, M. Ehara, K. Toyota, R. Fukuda, 
 J. Hasegawa, M. Ishida, T. Nakajima, Y. Honda, O. Kitao, H. Nakai, 
 T. Vreven, K. Throssell, J. A. Montgomery, Jr., J. E. Peralta, 
 F. Ogliaro, M. J. Bearpark, J. J. Heyd, E. N. Brothers, K. N. Kudin, 
 V. N. Staroverov, T. A. Keith, R. Kobayashi, J. Normand, 
 K. Raghavachari, A. P. Rendell, J. C. Burant, S. S. Iyengar, 
 J. Tomasi, M. Cossi, J. M. Millam, M. Klene, C. Adamo, R. Cammi, 
 J. W. Ochterski, R. L. Martin, K. Morokuma, O. Farkas, 
 J. B. Foresman, and D. J. Fox, Gaussian, Inc., Wallingford CT, 2016.
 
 ******************************************
 Gaussian 16:  ES64L-G16RevB.01 20-Dec-2017
                18-Jul-2022 
 ******************************************
 %nprocshared=40
 Will use up to   40 processors via shared memory.
 %mem=60GB
 %chk=sim003_type3_coord-5_2-3-0_10C_b1_id81786_step1560.chk
 ----------------------------------------------------------------------
 # opt=(calcall,maxcycles=500,maxstep=10,cartesian) freq iop(1/152=500,
 1/8=10) scf=(maxcycle=500) int(Acc2E=11,grid=ultrafine) rb3lyp/aug-cc-
 pvdz empiricaldispersion=gd3
 ----------------------------------------------------------------------
 1/6=500,8=10,10=4,18=10,26=4,38=1,152=500/1,3;
 2/12=2,17=6,18=5,29=2,40=1/2;
 3/5=16,7=10,11=2,25=1,27=11,30=1,71=2,74=-5,75=-5,116=1,124=31,140=1/1,2,3;
 4//1;
 5/5=2,7=500,38=5,87=11/2;
 8/6=4,10=90,11=11,87=11/1;
 11/6=1,8=1,9=11,15=111,16=1,87=11/1,2,10;
 10/6=1,87=11/2;
 6/7=2,8=2,9=2,10=2,18=1,28=1,87=11/1;
 7/7=1,10=1,25=1,87=11/1,2,3,16;
 1/6=500,8=10,10=4,18=10,26=4,152=500/3(3);
 2/29=1/2;
 7/7=1,8=1,9=1,25=1,44=-1,87=11/16;
 99/12=1/99;
 2/29=1/2;
 3/5=16,7=10,11=2,25=1,27=11,30=1,71=2,74=-5,75=-5,116=1,124=31,140=1/1,2,3;
 4/5=5,16=3,69=1/1;
 5/5=2,7=500,38=5,87=11/2;
 8/6=4,10=90,11=11,87=11/1;
 11/6=1,8=1,9=11,15=111,16=1,87=11/1,2,10;
 10/6=1,87=11/2;
 7/7=1,10=1,25=1,87=11/1,2,3,16;
 1/6=500,8=10,10=4,18=10,26=4,152=500/3(-8);
 2/29=1/2;
 6/7=2,8=2,9=2,10=2,18=1,19=2,28=1,87=11/1;
 7/7=1,8=1,9=1,25=1,44=-1,87=11/16;
 99/12=1/99;
 -----------------------------------------------------------
 MD frame sim003_type3_coord-5_2-3-0_10C_b1_id81786_step1560
 -----------------------------------------------------------
 Symbolic Z-matrix:
 Charge =  1 Multiplicity = 1
 O                     1.22691   1.13099  -1.67764 
 H                     0.71592   1.73298  -2.21864 
 H                     2.0579    1.584    -1.53464 
 O                    -1.30255   1.65554   0.77899 
 H                    -0.83753   2.43343   1.086 
 H                    -2.09954   1.62823   1.30811 
 O                     2.28946  -0.53402   0.9021 
 O                    -0.79754  -1.60127   1.76289 
 H                    -0.35655  -2.41307   1.5126 
 H                    -0.57354  -1.48107   2.68539 
 H                     2.38045  -1.06701   1.69209 
 H                     2.53846   0.34799   1.17729 
 O                    -0.53406  -1.38957  -1.9577 
 H                    -0.71516  -0.84806  -2.72571 
 H                     0.34434  -1.73727  -2.1111 
 Na                    0.        0.        0. 
 

 GradGradGradGradGradGradGradGradGradGradGradGradGradGradGradGradGradGrad
 Berny optimization.
 Initialization pass.
 No Z-matrix variables, so optimization will use Cartesian coordinates.
 Trust Radius=1.00D-01 FncErr=1.00D-07 GrdErr=1.00D-06 EigMax=2.50D+02 EigMin=1.00D-04
 Number of steps in this run=    500 maximum allowed number of steps=    500.
 GradGradGradGradGradGradGradGradGradGradGradGradGradGradGradGradGradGrad

 ---------------------------------------------------------------------------------------------------
                            Z-MATRIX (ANGSTROMS AND DEGREES)
   CD    Cent   Atom    N1       Length/X        N2       Alpha/Y        N3        Beta/Z          J
 ---------------------------------------------------------------------------------------------------
      1      1  O        0   1.226910          1.130990         -1.677640
      2      2  H        0   0.715920          1.732980         -2.218640
      3      3  H        0   2.057900          1.584000         -1.534640
      4      4  O        0  -1.302550          1.655540          0.778990
      5      5  H        0  -0.837530          2.433430          1.086000
      6      6  H        0  -2.099540          1.628230          1.308110
      7      7  O        0   2.289460         -0.534020          0.902100
      8      8  O        0  -0.797540         -1.601270          1.762890
      9      9  H        0  -0.356550         -2.413070          1.512600
     10     10  H        0  -0.573540         -1.481070          2.685390
     11     11  H        0   2.380450         -1.067010          1.692090
     12     12  H        0   2.538460          0.347990          1.177290
     13     13  O        0  -0.534060         -1.389570         -1.957700
     14     14  H        0  -0.715160         -0.848060         -2.725710
     15     15  H        0   0.344340         -1.737270         -2.111100
     16     16  Na       0   0.000000          0.000000          0.000000
 ---------------------------------------------------------------------------------------------------
                         Z-Matrix orientation:                         
 ---------------------------------------------------------------------
 Center     Atomic      Atomic             Coordinates (Angstroms)
 Number     Number       Type             X           Y           Z
 ---------------------------------------------------------------------
      1          8           0        1.226910    1.130990   -1.677640
      2          1           0        0.715920    1.732980   -2.218640
      3          1           0        2.057900    1.584000   -1.534640
      4          8           0       -1.302550    1.655540    0.778990
      5          1           0       -0.837530    2.433430    1.086000
      6          1           0       -2.099540    1.628230    1.308110
      7          8           0        2.289460   -0.534020    0.902100
      8          8           0       -0.797540   -1.601270    1.762890
      9          1           0       -0.356550   -2.413070    1.512600
     10          1           0       -0.573540   -1.481070    2.685390
     11          1           0        2.380450   -1.067010    1.692090
     12          1           0        2.538460    0.347990    1.177290
     13          8           0       -0.534060   -1.389570   -1.957700
     14          1           0       -0.715160   -0.848060   -2.725710
     15          1           0        0.344340   -1.737270   -2.111100
     16         11           0        0.000000    0.000000    0.000000
 ---------------------------------------------------------------------
                    Distance matrix (angstroms):
                    1          2          3          4          5
     1  O    0.000000
     2  H    0.957175   0.000000
     3  H    0.957189   1.513592   0.000000
     4  O    3.564877   3.614693   4.080518   0.000000
     5  H    3.687271   3.718129   3.996599   0.956876   0.000000
     6  H    4.497468   4.513951   5.036615   0.957030   1.513390
     7  O    3.249051   4.165853   3.236870   4.208547   4.314817
     8  O    4.837447   5.409285   5.401221   3.439463   4.091281
     9  H    5.024474   5.679971   5.576003   4.241071   4.888956
    10  H    5.394489   6.003527   5.841899   3.742210   4.236868
    11  H    4.185324   5.089638   4.188518   4.670173   4.793310
    12  H    3.237882   4.095386   3.018812   4.076970   3.969219
    13  O    3.087502   3.373553   3.967286   4.165662   4.896073
    14  H    2.964241   2.994474   3.876006   4.346949   5.031131
    15  H    3.032117   3.491743   3.781459   4.751424   5.386372
    16  Na   2.366204   2.904845   3.016476   2.245946   2.793284
                    6          7          8          9         10
     6  H    0.000000
     7  O    4.909531   0.000000
     8  O    3.511652   3.377803   0.000000
     9  H    4.405898   3.302258   0.957150   0.000000
    10  H    3.727375   3.503398   0.956886   1.513653   0.000000
    11  H    5.242334   0.957310   3.223363   3.055366   3.143906
    12  H    4.813229   0.956908   3.907869   4.014594   3.912080
    13  O    4.714166   4.108855   3.735911   3.622436   4.644159
    14  H    4.931554   4.720950   4.552103   4.532232   5.449840
    15  H    5.384249   3.782945   4.041062   3.752220   4.890241
    16  Na   2.961478   2.518053   2.511557   2.870190   3.119910
                   11         12         13         14         15
    11  H    0.000000
    12  H    1.514005   0.000000
    13  O    4.681814   4.720980   0.000000
    14  H    5.398861   5.220152   0.957011   0.000000
    15  H    4.365690   4.469450   0.957086   1.513598   0.000000
    16  Na   3.109376   2.819732   2.459413   2.942814   2.755616
                   16
    16  Na   0.000000
 Stoichiometry    H10NaO5(1+)
 Framework group  C1[X(H10NaO5)]
 Deg. of freedom    42
 Full point group                 C1      NOp   1
 Largest Abelian subgroup         C1      NOp   1
 Largest concise Abelian subgroup C1      NOp   1
                         Standard orientation:                         
 ---------------------------------------------------------------------
 Center     Atomic      Atomic             Coordinates (Angstroms)
 Number     Number       Type             X           Y           Z
 ---------------------------------------------------------------------
      1          8           0       -2.216968    0.072594   -0.685950
      2          1           0       -2.746059    0.847753   -0.497868
      3          1           0       -2.493133   -0.199335   -1.561163
      4          8           0        0.566612    2.293934   -0.525693
      5          1           0        0.439075    2.514000   -1.448144
      6          1           0        1.289619    2.853818   -0.243383
      7          8           0        0.319413   -1.799084   -1.473302
      8          8           0        2.381173   -0.328824    0.762103
      9          1           0        2.295773   -1.217387    1.107500
     10          1           0        3.095990   -0.385328    0.128482
     11          1           0        1.174978   -2.221351   -1.551661
     12          1           0        0.194182   -1.352686   -2.310391
     13          8           0       -1.088946   -0.444602    2.141195
     14          1           0       -1.900414    0.048328    2.261241
     15          1           0       -1.375945   -1.317684    1.874039
     16         11           0        0.030514    0.188884    0.044956
 ---------------------------------------------------------------------
 Rotational constants (GHZ):           1.5838335           1.3141055           1.2627195
 Standard basis: Aug-CC-pVDZ (5D, 7F)
 There are   244 symmetry adapted cartesian basis functions of A   symmetry.
 There are   232 symmetry adapted basis functions of A   symmetry.
   232 basis functions,   406 primitive gaussians,   244 cartesian basis functions
    30 alpha electrons       30 beta electrons
       nuclear repulsion energy       300.2227124414 Hartrees.
 NAtoms=   16 NActive=   16 NUniq=   16 SFac= 1.00D+00 NAtFMM=   60 NAOKFM=F Big=F
 Integral buffers will be    131072 words long.
 Raffenetti 2 integral format.
 Two-electron integral symmetry is turned on.
 Nuclear repulsion after empirical dispersion term =      300.2145574601 Hartrees.
 One-electron integrals computed using PRISM.
 NBasis=   232 RedAO= T EigKep=  3.60D-04  NBF=   232
 NBsUse=   232 1.00D-06 EigRej= -1.00D+00 NBFU=   232
 ExpMin= 6.16D-03 ExpMax= 3.17D+04 ExpMxC= 1.08D+03 IAcc=3 IRadAn=         5 AccDes= 0.00D+00
 Harris functional with IExCor=  402 and IRadAn=       5 diagonalized for initial guess.
 HarFok:  IExCor=  402 AccDes= 0.00D+00 IRadAn=         5 IDoV= 1 UseB2=F ITyADJ=14
 ICtDFT=  3500011 ScaDFX=  1.000000  1.000000  1.000000  1.000000
 FoFCou: FMM=F IPFlag=           0 FMFlag=      100000 FMFlg1=           0
         NFxFlg=           0 DoJE=T BraDBF=F KetDBF=T FulRan=T
         wScrn=  0.000000 ICntrl=       500 IOpCl=  0 I1Cent=   200000004 NGrid=           0
         NMat0=    1 NMatS0=      1 NMatT0=    0 NMatD0=    1 NMtDS0=    0 NMtDT0=    0
 Petite list used in FoFCou.
 Requested convergence on RMS density matrix=1.00D-08 within 500 cycles.
 Requested convergence on MAX density matrix=1.00D-06.
 Requested convergence on             energy=1.00D-06.
 No special actions if energy rises.
 SCF Done:  E(RB3LYP) =  -544.442771487     A.U. after   10 cycles
            NFock= 10  Conv=0.44D-08     -V/T= 2.0055
 DoSCS=F DFT=T ScalE2(SS,OS)=  1.000000  1.000000
 Range of M.O.s used for correlation:     1   232
 NBasis=   232 NAE=    30 NBE=    30 NFC=     0 NFV=     0
 NROrb=    232 NOA=    30 NOB=    30 NVA=   202 NVB=   202

 **** Warning!!: The largest alpha MO coefficient is  0.14013516D+02

 Symmetrizing basis deriv contribution to polar:
 IMax=3 JMax=2 DiffMx= 0.00D+00
 G2DrvN: will do    17 centers at a time, making    1 passes.
 Calling FoFCou, ICntrl=  3107 FMM=F I1Cent=   0 AccDes= 1.00D-11.
 End of G2Drv F.D. properties file   721 does not exist.
 End of G2Drv F.D. properties file   722 does not exist.
 End of G2Drv F.D. properties file   788 does not exist.
          IDoAtm=1111111111111111
          Differentiating once with respect to electric field.
                with respect to dipole field.
          Differentiating once with respect to nuclear coordinates.
 Keep R1 ints in memory in canonical form, NReq=408195318.
          There are    51 degrees of freedom in the 1st order CPHF.  IDoFFX=6 NUNeed=     3.
     48 vectors produced by pass  0 Test12= 1.19D-14 1.96D-09 XBig12= 2.23D+01 8.73D-01.
 AX will form    48 AO Fock derivatives at one time.
     48 vectors produced by pass  1 Test12= 1.19D-14 1.96D-09 XBig12= 1.97D+00 2.30D-01.
     48 vectors produced by pass  2 Test12= 1.19D-14 1.96D-09 XBig12= 3.52D-02 3.24D-02.
     48 vectors produced by pass  3 Test12= 1.19D-14 1.96D-09 XBig12= 7.82D-05 9.84D-04.
     48 vectors produced by pass  4 Test12= 1.19D-14 1.96D-09 XBig12= 8.34D-08 3.04D-05.
     20 vectors produced by pass  5 Test12= 1.19D-14 1.96D-09 XBig12= 5.90D-11 7.99D-07.
      3 vectors produced by pass  6 Test12= 1.19D-14 1.96D-09 XBig12= 4.35D-14 2.32D-08.
 InvSVY:  IOpt=1 It=  1 EMax= 9.85D-16
 Solved reduced A of dimension   263 with    51 vectors.
 Isotropic polarizability for W=    0.000000       46.61 Bohr**3.
 End of Minotr F.D. properties file   721 does not exist.
 End of Minotr F.D. properties file   722 does not exist.
 End of Minotr F.D. properties file   788 does not exist.

 **********************************************************************

            Population analysis using the SCF Density.

 **********************************************************************

 Orbital symmetries:
       Occupied  (A) (A) (A) (A) (A) (A) (A) (A) (A) (A) (A) (A)
                 (A) (A) (A) (A) (A) (A) (A) (A) (A) (A) (A) (A)
                 (A) (A) (A) (A) (A) (A)
       Virtual   (A) (A) (A) (A) (A) (A) (A) (A) (A) (A) (A) (A)
                 (A) (A) (A) (A) (A) (A) (A) (A) (A) (A) (A) (A)
                 (A) (A) (A) (A) (A) (A) (A) (A) (A) (A) (A) (A)
                 (A) (A) (A) (A) (A) (A) (A) (A) (A) (A) (A) (A)
                 (A) (A) (A) (A) (A) (A) (A) (A) (A) (A) (A) (A)
                 (A) (A) (A) (A) (A) (A) (A) (A) (A) (A) (A) (A)
                 (A) (A) (A) (A) (A) (A) (A) (A) (A) (A) (A) (A)
                 (A) (A) (A) (A) (A) (A) (A) (A) (A) (A) (A) (A)
                 (A) (A) (A) (A) (A) (A) (A) (A) (A) (A) (A) (A)
                 (A) (A) (A) (A) (A) (A) (A) (A) (A) (A) (A) (A)
                 (A) (A) (A) (A) (A) (A) (A) (A) (A) (A) (A) (A)
                 (A) (A) (A) (A) (A) (A) (A) (A) (A) (A) (A) (A)
                 (A) (A) (A) (A) (A) (A) (A) (A) (A) (A) (A) (A)
                 (A) (A) (A) (A) (A) (A) (A) (A) (A) (A) (A) (A)
                 (A) (A) (A) (A) (A) (A) (A) (A) (A) (A) (A) (A)
                 (A) (A) (A) (A) (A) (A) (A) (A) (A) (A) (A) (A)
                 (A) (A) (A) (A) (A) (A) (A) (A) (A) (A)
 The electronic state is 1-A.
 Alpha  occ. eigenvalues --  -38.59218 -19.32493 -19.32455 -19.32186 -19.31040
 Alpha  occ. eigenvalues --  -19.30299  -2.32788  -1.26173  -1.26087  -1.26014
 Alpha  occ. eigenvalues --   -1.19234  -1.19117  -1.18819  -1.17676  -1.16973
 Alpha  occ. eigenvalues --   -0.70849  -0.70685  -0.70215  -0.69146  -0.68457
 Alpha  occ. eigenvalues --   -0.58405  -0.57837  -0.56580  -0.55760  -0.54857
 Alpha  occ. eigenvalues --   -0.49683  -0.49478  -0.49088  -0.47435  -0.47110
 Alpha virt. eigenvalues --   -0.17919  -0.14714  -0.13915  -0.13312  -0.10702
 Alpha virt. eigenvalues --   -0.09070  -0.08456  -0.08202  -0.07535  -0.06705
 Alpha virt. eigenvalues --   -0.05603  -0.05473  -0.05325  -0.05022  -0.04968
 Alpha virt. eigenvalues --   -0.04225  -0.03228  -0.02927  -0.01265  -0.00730
 Alpha virt. eigenvalues --   -0.00266   0.00326   0.00747   0.00997   0.01448
 Alpha virt. eigenvalues --    0.01832   0.01948   0.02294   0.03099   0.03158
 Alpha virt. eigenvalues --    0.03521   0.04177   0.04893   0.05330   0.05799
 Alpha virt. eigenvalues --    0.06192   0.06472   0.06922   0.07407   0.07890
 Alpha virt. eigenvalues --    0.08428   0.09200   0.09816   0.10456   0.12084
 Alpha virt. eigenvalues --    0.13289   0.14106   0.14579   0.15423   0.16597
 Alpha virt. eigenvalues --    0.17387   0.18188   0.18642   0.19313   0.20234
 Alpha virt. eigenvalues --    0.20845   0.21617   0.22335   0.23674   0.24470
 Alpha virt. eigenvalues --    0.25362   0.27017   0.27943   0.28483   0.28981
 Alpha virt. eigenvalues --    0.30202   0.30670   0.31252   0.32073   0.33197
 Alpha virt. eigenvalues --    0.33917   0.34640   0.35176   0.35618   0.36993
 Alpha virt. eigenvalues --    0.37179   0.37296   0.37927   0.39378   0.39952
 Alpha virt. eigenvalues --    0.41111   0.42058   0.42443   0.43119   0.44150
 Alpha virt. eigenvalues --    0.44551   0.44819   0.45705   0.47017   0.47503
 Alpha virt. eigenvalues --    0.48776   0.55046   0.56487   0.57683   0.61204
 Alpha virt. eigenvalues --    0.62216   0.65234   0.66626   0.69261   0.70641
 Alpha virt. eigenvalues --    0.74148   0.79353   0.81427   0.82394   0.82498
 Alpha virt. eigenvalues --    0.83150   0.84104   0.85544   0.86696   0.88302
 Alpha virt. eigenvalues --    0.88911   0.91037   0.92420   0.93975   0.95606
 Alpha virt. eigenvalues --    0.96613   0.99224   1.01840   1.04281   1.05146
 Alpha virt. eigenvalues --    1.06545   1.09466   1.09796   1.13777   1.14437
 Alpha virt. eigenvalues --    1.17046   1.20149   1.21206   1.23765   1.27547
 Alpha virt. eigenvalues --    1.29529   1.32939   1.35046   1.41306   1.48731
 Alpha virt. eigenvalues --    1.49957   1.60537   1.62621   1.63965   1.64869
 Alpha virt. eigenvalues --    1.66115   1.67700   1.70694   1.73575   1.74989
 Alpha virt. eigenvalues --    1.76875   1.79134   1.80661   1.80913   1.84596
 Alpha virt. eigenvalues --    1.86511   1.97781   1.99404   2.00942   2.01915
 Alpha virt. eigenvalues --    2.02126   2.03151   2.03456   2.03997   2.04699
 Alpha virt. eigenvalues --    2.06093   2.12659   2.16671   2.17534   2.19038
 Alpha virt. eigenvalues --    2.20977   2.22116   2.29709   2.31918   2.35886
 Alpha virt. eigenvalues --    2.40268   2.43417   2.61270   2.62264   2.62884
 Alpha virt. eigenvalues --    2.63636   2.64907   3.16260   3.17085   3.17542
 Alpha virt. eigenvalues --    3.18089   3.18548   3.18759   3.20325   3.20615
 Alpha virt. eigenvalues --    3.21915   3.22813   3.25204   3.25796   3.26899
 Alpha virt. eigenvalues --    3.29429   3.30076   3.52188   3.52328   3.54278
 Alpha virt. eigenvalues --    3.55433   3.56857   3.75525   3.77227   3.77611
 Alpha virt. eigenvalues --    3.78358   3.80465
          Condensed to atoms (all electrons):
               1          2          3          4          5          6
     1  O    7.611065   0.347833   0.319899  -0.009697   0.001987  -0.000081
     2  H    0.347833   0.590868  -0.090824  -0.001015  -0.000437  -0.000516
     3  H    0.319899  -0.090824   0.624379   0.001862   0.001588   0.000015
     4  O   -0.009697  -0.001015   0.001862   7.634358   0.360053   0.353629
     5  H    0.001987  -0.000437   0.001588   0.360053   0.603815  -0.099518
     6  H   -0.000081  -0.000516   0.000015   0.353629  -0.099518   0.580416
     7  O   -0.024835  -0.000488   0.002061   0.002783  -0.000788   0.001075
     8  O    0.002046   0.000757   0.000532  -0.011416   0.002222   0.001112
     9  H   -0.000027  -0.000086  -0.000289   0.001335  -0.000183  -0.000673
    10  H    0.000409  -0.000047   0.000121   0.002173   0.000489   0.000534
    11  H    0.001888   0.000643  -0.001113   0.001483   0.000325   0.000111
    12  H    0.000740  -0.000650   0.005583   0.001484   0.000502   0.000380
    13  O   -0.010748  -0.000540   0.003244   0.007063   0.001316   0.001012
    14  H    0.002712   0.001431   0.000523  -0.000192   0.000406  -0.000588
    15  H    0.007162   0.000944  -0.000351   0.000269  -0.000197  -0.000142
    16  Na   0.004369  -0.008336   0.001097  -0.026961  -0.010456  -0.001913
               7          8          9         10         11         12
     1  O   -0.024835   0.002046  -0.000027   0.000409   0.001888   0.000740
     2  H   -0.000488   0.000757  -0.000086  -0.000047   0.000643  -0.000650
     3  H    0.002061   0.000532  -0.000289   0.000121  -0.001113   0.005583
     4  O    0.002783  -0.011416   0.001335   0.002173   0.001483   0.001484
     5  H   -0.000788   0.002222  -0.000183   0.000489   0.000325   0.000502
     6  H    0.001075   0.001112  -0.000673   0.000534   0.000111   0.000380
     7  O    7.554474  -0.015180  -0.003631   0.000819   0.329993   0.336359
     8  O   -0.015180   7.517941   0.319448   0.331906   0.005124  -0.000809
     9  H   -0.003631   0.319448   0.643869  -0.100560   0.000336  -0.001523
    10  H    0.000819   0.331906  -0.100560   0.643012  -0.001111   0.001479
    11  H    0.329993   0.005124   0.000336  -0.001111   0.591135  -0.092419
    12  H    0.336359  -0.000809  -0.001523   0.001479  -0.092419   0.635233
    13  O   -0.000470  -0.004312   0.002632  -0.000081   0.000272   0.001237
    14  H    0.000744  -0.000136  -0.001008   0.000213   0.000162   0.000133
    15  H   -0.000186   0.001367   0.001105  -0.000229  -0.000334  -0.001177
    16  Na   0.010258   0.019965  -0.000136   0.002068   0.004300  -0.007851
              13         14         15         16
     1  O   -0.010748   0.002712   0.007162   0.004369
     2  H   -0.000540   0.001431   0.000944  -0.008336
     3  H    0.003244   0.000523  -0.000351   0.001097
     4  O    0.007063  -0.000192   0.000269  -0.026961
     5  H    0.001316   0.000406  -0.000197  -0.010456
     6  H    0.001012  -0.000588  -0.000142  -0.001913
     7  O   -0.000470   0.000744  -0.000186   0.010258
     8  O   -0.004312  -0.000136   0.001367   0.019965
     9  H    0.002632  -0.001008   0.001105  -0.000136
    10  H   -0.000081   0.000213  -0.000229   0.002068
    11  H    0.000272   0.000162  -0.000334   0.004300
    12  H    0.001237   0.000133  -0.001177  -0.007851
    13  O    7.536905   0.325948   0.319328   0.014863
    14  H    0.325948   0.624269  -0.085265  -0.002607
    15  H    0.319328  -0.085265   0.620242  -0.013682
    16  Na   0.014863  -0.002607  -0.013682  10.301116
 Mulliken charges:
               1
     1  O   -0.254724
     2  H    0.160461
     3  H    0.131674
     4  O   -0.317214
     5  H    0.138877
     6  H    0.165147
     7  O   -0.192989
     8  O   -0.170566
     9  H    0.139391
    10  H    0.118803
    11  H    0.159204
    12  H    0.121299
    13  O   -0.197670
    14  H    0.133255
    15  H    0.151145
    16  Na   0.713906
 Sum of Mulliken charges =   1.00000
 Mulliken charges with hydrogens summed into heavy atoms:
               1
     1  O    0.037411
     4  O   -0.013189
     7  O    0.087514
     8  O    0.087629
    13  O    0.086730
    16  Na   0.713906
 APT charges:
               1
     1  O   -0.546529
     2  H    0.289054
     3  H    0.285602
     4  O   -0.555948
     5  H    0.285923
     6  H    0.304844
     7  O   -0.537742
     8  O   -0.539935
     9  H    0.280885
    10  H    0.281701
    11  H    0.286750
    12  H    0.273441
    13  O   -0.539729
    14  H    0.284666
    15  H    0.285630
    16  Na   0.861386
 Sum of APT charges =   1.00000
 APT charges with hydrogens summed into heavy atoms:
               1
     1  O    0.028127
     4  O    0.034819
     7  O    0.022449
     8  O    0.022652
    13  O    0.030567
    16  Na   0.861386
 Electronic spatial extent (au):  <R**2>=           1179.5480
 Charge=              1.0000 electrons
 Dipole moment (field-independent basis, Debye):
    X=              0.1236    Y=              0.7625    Z=             -4.1162  Tot=              4.1880
 Quadrupole moment (field-independent basis, Debye-Ang):
   XX=            -11.9042   YY=            -20.9070   ZZ=            -24.7580
   XY=             -4.5783   XZ=             -3.7216   YZ=             -3.2168
 Traceless Quadrupole moment (field-independent basis, Debye-Ang):
   XX=              7.2855   YY=             -1.7172   ZZ=             -5.5683
   XY=             -4.5783   XZ=             -3.7216   YZ=             -3.2168
 Octapole moment (field-independent basis, Debye-Ang**2):
  XXX=             -4.2535  YYY=             21.7089  ZZZ=            -31.6929  XYY=             23.6866
  XXY=             -0.9958  XXZ=             -7.3512  XZZ=            -13.8073  YZZ=             -3.5604
  YYZ=             -8.1672  XYZ=              0.9516
 Hexadecapole moment (field-independent basis, Debye-Ang**3):
 XXXX=           -339.1868 YYYY=           -289.1151 ZZZZ=           -324.0809 XXXY=            -52.4740
 XXXZ=             -5.5352 YYYX=             23.0440 YYYZ=            -33.9298 ZZZX=            -12.3930
 ZZZY=             11.7664 XXYY=            -97.1043 XXZZ=           -102.4751 YYZZ=            -85.9541
 XXYZ=             -4.6591 YYXZ=            -18.2091 ZZXY=             -8.7401
 N-N= 3.002145574601D+02 E-N=-1.883507965480D+03  KE= 5.414638322242D+02
  Exact polarizability:  47.355  -0.495  46.062   0.366   0.077  46.406
 Approx polarizability:  55.831  -0.996  56.395  -0.133   0.068  56.237
 Calling FoFJK, ICntrl=    100127 FMM=F ISym2X=0 I1Cent= 0 IOpClX= 0 NMat=1 NMatS=1 NMatT=0.
 ***** Axes restored to original set *****
 -------------------------------------------------------------------
 Center     Atomic                   Forces (Hartrees/Bohr)
 Number     Number              X              Y              Z
 -------------------------------------------------------------------
      1        8          -0.004180659   -0.005848050    0.007490096
      2        1          -0.004628070    0.006090636   -0.006963317
      3        1           0.009605126    0.002635074   -0.000705723
      4        8           0.005734479   -0.003613798   -0.004079048
      5        1           0.002665605    0.009955462    0.002006207
      6        1          -0.009315266   -0.002070524    0.003639411
      7        8          -0.010838762    0.000756592   -0.009616967
      8        8           0.000803858    0.009860055   -0.009571899
      9        1           0.000560687   -0.011135742   -0.001800055
     10        1          -0.000713374    0.000934165    0.009910000
     11        1           0.002930023   -0.006153030    0.006619117
     12        1           0.007592091    0.007777381    0.003450516
     13        8          -0.003739559    0.002494863    0.014515563
     14        1          -0.003236533    0.002824339   -0.008779624
     15        1           0.008373744   -0.005686243   -0.004942383
     16       11          -0.001613392   -0.008821180   -0.001171896
 -------------------------------------------------------------------
 Cartesian Forces:  Max     0.014515563 RMS     0.006413189

 GradGradGradGradGradGradGradGradGradGradGradGradGradGradGradGradGradGrad
 Berny optimization.
 Search for a local minimum.
 Step number   1 out of a maximum of  500
 All quantities printed in internal units (Hartrees-Bohrs-Radians)
 Second derivative matrix not updated -- analytic derivatives used.
 ITU=  0
     Eigenvalues ---   -0.00742  -0.00703  -0.00580  -0.00567  -0.00565
     Eigenvalues ---   -0.00507  -0.00327  -0.00308  -0.00260  -0.00222
     Eigenvalues ---   -0.00174  -0.00150  -0.00133  -0.00062  -0.00002
     Eigenvalues ---    0.00034   0.00133   0.00251   0.00340   0.00428
     Eigenvalues ---    0.00566   0.00694   0.00804   0.01128   0.02328
     Eigenvalues ---    0.03090   0.04944   0.15210   0.15438   0.15638
     Eigenvalues ---    0.16069   0.16420   0.86584   0.88642   0.90931
     Eigenvalues ---    0.92791   0.96567   1.09947   1.15095   1.17238
     Eigenvalues ---    1.23387   1.25973
 RFO step:  Lambda=-1.78368851D-02 EMin=-7.42471663D-03
 Linear search not attempted -- first point.
 Maximum step size (   0.100) exceeded in Quadratic search.
    -- Step size scaled by   0.140
 B after Tr=     0.001766    0.001280    0.002037
         Rot=    1.000000   -0.000054    0.000106    0.000005 Ang=  -0.01 deg.
 Variable       Old X    -DE/DX   Delta X   Delta X   Delta X     New X
                                 (Linear)    (Quad)   (Total)
    X1        2.31852  -0.00418   0.00000  -0.00318  -0.00073   2.31780
    Y1        2.13726  -0.00585   0.00000   0.00048   0.00208   2.13934
    Z1       -3.17028   0.00749   0.00000   0.00802   0.01078  -3.15950
    X2        1.35289  -0.00463   0.00000  -0.00787  -0.00518   1.34771
    Y2        3.27486   0.00609   0.00000  -0.02608  -0.02436   3.25050
    Z2       -4.19262  -0.00696   0.00000  -0.02100  -0.01833  -4.21095
    X3        3.88887   0.00961   0.00000  -0.00606  -0.00365   3.88522
    Y3        2.99333   0.00264   0.00000   0.01483   0.01639   3.00971
    Z3       -2.90005  -0.00071   0.00000  -0.00751  -0.00432  -2.90437
    X4       -2.46146   0.00573   0.00000   0.01606   0.01755  -2.44391
    Y4        3.12852  -0.00361   0.00000   0.00821   0.00936   3.13788
    Z4        1.47208  -0.00408   0.00000   0.00506   0.00692   1.47899
    X5       -1.58270   0.00267   0.00000  -0.00343  -0.00205  -1.58475
    Y5        4.59852   0.00996   0.00000   0.02335   0.02443   4.62294
    Z5        2.05224   0.00201   0.00000   0.00219   0.00439   2.05663
    X6       -3.96756  -0.00932   0.00000   0.01241   0.01368  -3.95387
    Y6        3.07691  -0.00207   0.00000  -0.01064  -0.00959   3.06732
    Z6        2.47197   0.00364   0.00000   0.00284   0.00437   2.47634
    X7        4.32645  -0.01084   0.00000  -0.03727  -0.03588   4.29058
    Y7       -1.00915   0.00076   0.00000   0.00036   0.00141  -1.00774
    Z7        1.70472  -0.00962   0.00000   0.01028   0.01312   1.71784
    X8       -1.50713   0.00080   0.00000   0.03288   0.03391  -1.47322
    Y8       -3.02596   0.00986   0.00000   0.01771   0.01865  -3.00731
    Z8        3.33138  -0.00957   0.00000  -0.01134  -0.00994   3.32144
    X9       -0.67378   0.00056   0.00000  -0.01334  -0.01222  -0.68600
    Y9       -4.56004  -0.01114   0.00000  -0.01065  -0.00967  -4.56971
    Z9        2.85840  -0.00180   0.00000  -0.00816  -0.00676   2.85164
   X10       -1.08383  -0.00071   0.00000  -0.00646  -0.00579  -1.08963
   Y10       -2.79882   0.00093   0.00000  -0.01753  -0.01678  -2.81560
   Z10        5.07465   0.00991   0.00000   0.00501   0.00652   5.08117
   X11        4.49840   0.00293   0.00000  -0.01612  -0.01505   4.48335
   Y11       -2.01636  -0.00615   0.00000   0.00472   0.00561  -2.01075
   Z11        3.19759   0.00662   0.00000   0.01355   0.01632   3.21391
   X12        4.79699   0.00759   0.00000   0.00822   0.00952   4.80652
   Y12        0.65761   0.00778   0.00000  -0.00381  -0.00282   0.65479
   Z12        2.22476   0.00345   0.00000  -0.01055  -0.00743   2.21733
   X13       -1.00923  -0.00374   0.00000   0.01678   0.01930  -0.98993
   Y13       -2.62591   0.00249   0.00000   0.01428   0.01596  -2.60994
   Z13       -3.69952   0.01452   0.00000   0.00939   0.01093  -3.68858
   X14       -1.35146  -0.00324   0.00000  -0.02352  -0.02068  -1.37213
   Y14       -1.60260   0.00282   0.00000  -0.01884  -0.01699  -1.61959
   Z14       -5.15085  -0.00878   0.00000  -0.00738  -0.00581  -5.15665
   X15        0.65071   0.00837   0.00000   0.01078   0.01336   0.66407
   Y15       -3.28296  -0.00569   0.00000   0.00698   0.00869  -3.27428
   Z15       -3.98940  -0.00494   0.00000  -0.02249  -0.02067  -4.01007
   X16        0.00000  -0.00161   0.00000  -0.00787  -0.00611  -0.00611
   Y16       -0.00000  -0.00882   0.00000  -0.02364  -0.02236  -0.02236
   Z16        0.00000  -0.00117   0.00000  -0.00213  -0.00010  -0.00010
         Item               Value     Threshold  Converged?
 Maximum Force            0.014516     0.000450     NO 
 RMS     Force            0.006413     0.000300     NO 
 Maximum Displacement     0.035876     0.001800     NO 
 RMS     Displacement     0.014315     0.001200     NO 
 Predicted change in Energy=-1.598608D-03
 GradGradGradGradGradGradGradGradGradGradGradGradGradGradGradGradGradGrad

                          Input orientation:                          
 ---------------------------------------------------------------------
 Center     Atomic      Atomic             Coordinates (Angstroms)
 Number     Number       Type             X           Y           Z
 ---------------------------------------------------------------------
      1          8           0        1.226526    1.132089   -1.671935
      2          1           0        0.713176    1.720091   -2.228338
      3          1           0        2.055971    1.592671   -1.536928
      4          8           0       -1.293263    1.660493    0.782650
      5          1           0       -0.838615    2.446356    1.088323
      6          1           0       -2.092299    1.623156    1.310425
      7          8           0        2.270475   -0.533274    0.909041
      8          8           0       -0.779595   -1.591403    1.757632
      9          1           0       -0.363015   -2.418188    1.509023
     10          1           0       -0.576605   -1.489950    2.688839
     11          1           0        2.372486   -1.064042    1.700727
     12          1           0        2.543499    0.346499    1.173359
     13          8           0       -0.523846   -1.381123   -1.951915
     14          1           0       -0.726102   -0.857053   -2.728783
     15          1           0        0.351409   -1.732674   -2.122037
     16         11           0       -0.003231   -0.011831   -0.000053
 ---------------------------------------------------------------------
                    Distance matrix (angstroms):
                    1          2          3          4          5
     1  O    0.000000
     2  H    0.958571   0.000000
     3  H    0.958301   1.515711   0.000000
     4  O    3.557182   3.618757   4.074606   0.000000
     5  H    3.689327   3.733063   3.999919   0.957978   0.000000
     6  H    4.488899   4.516960   5.031550   0.958331   1.516150
     7  O    3.244180   4.164851   3.247833   4.186744   4.310079
     8  O    4.817039   5.392803   5.388218   3.433551   4.093282
     9  H    5.024898   5.679033   5.587156   4.246012   4.905810
    10  H    5.398400   6.012198   5.855776   3.751326   4.257324
    11  H    4.184623   5.093354   4.200086   4.658720   4.796780
    12  H    3.232223   4.099802   3.022629   4.074307   3.981875
    13  O    3.075456   3.350249   3.958677   4.161884   4.898135
    14  H    2.981001   2.993934   3.893789   4.357737   5.049304
    15  H    3.029074   3.473293   3.782301   4.759804   5.402486
    16  Na   2.369820   2.911709   3.029312   2.252438   2.815158
                    6          7          8          9         10
     6  H    0.000000
     7  O    4.883144   0.000000
     8  O    3.500939   3.338064   0.000000
     9  H    4.400264   3.293654   0.958603   0.000000
    10  H    3.726765   3.491243   0.958459   1.516316   0.000000
    11  H    5.225674   0.958586   3.196398   3.058338   3.139251
    12  H    4.810328   0.958335   3.890989   4.025418   3.924828
    13  O    4.704104   4.088050   3.724294   3.616553   4.642329
    14  H    4.932862   4.724201   4.546433   4.530780   5.456513
    15  H    5.386566   3.782699   4.043632   3.763632   4.905573
    16  Na   2.958841   2.503616   2.487417   2.863094   3.121495
                   11         12         13         14         15
    11  H    0.000000
    12  H    1.515582   0.000000
    13  O    4.672373   4.707507   0.000000
    14  H    5.409681   5.231208   0.958687   0.000000
    15  H    4.375539   4.470777   0.958437   1.515217   0.000000
    16  Na   3.105452   2.826858   2.440443   2.946678   2.754974
                   16
    16  Na   0.000000
 Stoichiometry    H10NaO5(1+)
 Framework group  C1[X(H10NaO5)]
 Deg. of freedom    42
 Full point group                 C1      NOp   1
 Largest Abelian subgroup         C1      NOp   1
 Largest concise Abelian subgroup C1      NOp   1
                         Standard orientation:                         
 ---------------------------------------------------------------------
 Center     Atomic      Atomic             Coordinates (Angstroms)
 Number     Number       Type             X           Y           Z
 ---------------------------------------------------------------------
      1          8           0       -2.207522    0.096290   -0.701460
      2          1           0       -2.751552    0.848262   -0.461816
      3          1           0       -2.483678   -0.125729   -1.591846
      4          8           0        0.554474    2.318963   -0.410520
      5          1           0        0.432639    2.598215   -1.318758
      6          1           0        1.274208    2.861854   -0.085483
      7          8           0        0.354024   -1.704983   -1.549161
      8          8           0        2.362369   -0.358514    0.752197
      9          1           0        2.293321   -1.258377    1.075305
     10          1           0        3.103155   -0.377117    0.144305
     11          1           0        1.210436   -2.123413   -1.650956
     12          1           0        0.217100   -1.235431   -2.373284
     13          8           0       -1.106003   -0.560710    2.093792
     14          1           0       -1.917489   -0.078156    2.260266
     15          1           0       -1.397928   -1.422074    1.791413
     16         11           0        0.032823    0.180327    0.066552
 ---------------------------------------------------------------------
 Rotational constants (GHZ):           1.5955194           1.3222217           1.2699852
 Standard basis: Aug-CC-pVDZ (5D, 7F)
 There are   244 symmetry adapted cartesian basis functions of A   symmetry.
 There are   232 symmetry adapted basis functions of A   symmetry.
   232 basis functions,   406 primitive gaussians,   244 cartesian basis functions
    30 alpha electrons       30 beta electrons
       nuclear repulsion energy       300.8750184182 Hartrees.
 NAtoms=   16 NActive=   16 NUniq=   16 SFac= 1.00D+00 NAtFMM=   60 NAOKFM=F Big=F
 Integral buffers will be    131072 words long.
 Raffenetti 2 integral format.
 Two-electron integral symmetry is turned on.
 Nuclear repulsion after empirical dispersion term =      300.8668933226 Hartrees.
 One-electron integrals computed using PRISM.
 NBasis=   232 RedAO= T EigKep=  3.57D-04  NBF=   232
 NBsUse=   232 1.00D-06 EigRej= -1.00D+00 NBFU=   232
 Initial guess from the checkpoint file:  "sim003_type3_coord-5_2-3-0_10C_b1_id81786_step1560.chk"
 B after Tr=     0.000000   -0.000000   -0.000000
         Rot=    0.999653   -0.025730    0.004600   -0.003124 Ang=  -3.02 deg.
 ExpMin= 6.16D-03 ExpMax= 3.17D+04 ExpMxC= 1.08D+03 IAcc=3 IRadAn=         5 AccDes= 0.00D+00
 Harris functional with IExCor=  402 and IRadAn=       5 diagonalized for initial guess.
 HarFok:  IExCor=  402 AccDes= 0.00D+00 IRadAn=         5 IDoV= 1 UseB2=F ITyADJ=14
 ICtDFT=  3500011 ScaDFX=  1.000000  1.000000  1.000000  1.000000
 FoFCou: FMM=F IPFlag=           0 FMFlag=      100000 FMFlg1=           0
         NFxFlg=           0 DoJE=T BraDBF=F KetDBF=T FulRan=T
         wScrn=  0.000000 ICntrl=       500 IOpCl=  0 I1Cent=   200000004 NGrid=           0
         NMat0=    1 NMatS0=      1 NMatT0=    0 NMatD0=    1 NMtDS0=    0 NMtDT0=    0
 Petite list used in FoFCou.
 Requested convergence on RMS density matrix=1.00D-08 within 500 cycles.
 Requested convergence on MAX density matrix=1.00D-06.
 Requested convergence on             energy=1.00D-06.
 No special actions if energy rises.
 SCF Done:  E(RB3LYP) =  -544.444364578     A.U. after    8 cycles
            NFock=  8  Conv=0.75D-08     -V/T= 2.0055
 DoSCS=F DFT=T ScalE2(SS,OS)=  1.000000  1.000000
 Range of M.O.s used for correlation:     1   232
 NBasis=   232 NAE=    30 NBE=    30 NFC=     0 NFV=     0
 NROrb=    232 NOA=    30 NOB=    30 NVA=   202 NVB=   202

 **** Warning!!: The largest alpha MO coefficient is  0.14223940D+02

 Symmetrizing basis deriv contribution to polar:
 IMax=3 JMax=2 DiffMx= 0.00D+00
 G2DrvN: will do    17 centers at a time, making    1 passes.
 Calling FoFCou, ICntrl=  3107 FMM=F I1Cent=   0 AccDes= 1.00D-11.
 End of G2Drv F.D. properties file   721 does not exist.
 End of G2Drv F.D. properties file   722 does not exist.
 End of G2Drv F.D. properties file   788 does not exist.
          IDoAtm=1111111111111111
          Differentiating once with respect to electric field.
                with respect to dipole field.
          Differentiating once with respect to nuclear coordinates.
 Keep R1 ints in memory in canonical form, NReq=408195318.
          There are    51 degrees of freedom in the 1st order CPHF.  IDoFFX=6 NUNeed=     3.
     48 vectors produced by pass  0 Test12= 1.19D-14 1.96D-09 XBig12= 2.22D+01 8.98D-01.
 AX will form    48 AO Fock derivatives at one time.
     48 vectors produced by pass  1 Test12= 1.19D-14 1.96D-09 XBig12= 2.00D+00 2.21D-01.
     48 vectors produced by pass  2 Test12= 1.19D-14 1.96D-09 XBig12= 3.50D-02 3.10D-02.
     48 vectors produced by pass  3 Test12= 1.19D-14 1.96D-09 XBig12= 7.75D-05 9.76D-04.
     48 vectors produced by pass  4 Test12= 1.19D-14 1.96D-09 XBig12= 8.21D-08 2.89D-05.
     20 vectors produced by pass  5 Test12= 1.19D-14 1.96D-09 XBig12= 5.87D-11 7.69D-07.
      3 vectors produced by pass  6 Test12= 1.19D-14 1.96D-09 XBig12= 4.04D-14 2.18D-08.
 InvSVY:  IOpt=1 It=  1 EMax= 1.78D-15
 Solved reduced A of dimension   263 with    51 vectors.
 Isotropic polarizability for W=    0.000000       46.62 Bohr**3.
 End of Minotr F.D. properties file   721 does not exist.
 End of Minotr F.D. properties file   722 does not exist.
 End of Minotr F.D. properties file   788 does not exist.
 Calling FoFJK, ICntrl=    100127 FMM=F ISym2X=0 I1Cent= 0 IOpClX= 0 NMat=1 NMatS=1 NMatT=0.
 ***** Axes restored to original set *****
 -------------------------------------------------------------------
 Center     Atomic                   Forces (Hartrees/Bohr)
 Number     Number              X              Y              Z
 -------------------------------------------------------------------
      1        8          -0.003762669   -0.004464186    0.006738413
      2        1          -0.003779203    0.005070933   -0.006058701
      3        1           0.008396581    0.002263008   -0.000848592
      4        8           0.005078500   -0.003092819   -0.003208175
      5        1           0.002057740    0.008809487    0.001624887
      6        1          -0.008025560   -0.001838137    0.002994359
      7        8          -0.009836836    0.001371063   -0.007929039
      8        8           0.001658382    0.008370094   -0.008128049
      9        1          -0.000243586   -0.009698632   -0.001355178
     10        1          -0.001109722    0.000730428    0.008107648
     11        1           0.002608848   -0.005347110    0.005465020
     12        1           0.007126039    0.006326423    0.002760506
     13        8          -0.002798924    0.002678925    0.012434676
     14        1          -0.003158818    0.001759717   -0.007208069
     15        1           0.007089962   -0.005063460   -0.004568213
     16       11          -0.001300735   -0.007875736   -0.000821492
 -------------------------------------------------------------------
 Cartesian Forces:  Max     0.012434676 RMS     0.005520401

 GradGradGradGradGradGradGradGradGradGradGradGradGradGradGradGradGradGrad
 Berny optimization.
 Search for a local minimum.
 Step number   2 out of a maximum of  500
 All quantities printed in internal units (Hartrees-Bohrs-Radians)
 Second derivative matrix not updated -- analytic derivatives used.
 DE= -1.59D-03 DEPred=-1.60D-03 R= 9.97D-01
 TightC=F SS=  1.41D+00  RLast= 9.92D-02 DXNew= 1.6818D-01 2.9754D-01
 Trust test= 9.97D-01 RLast= 9.92D-02 DXMaxT set to 1.68D-01
 ITU=  1  0
 Linear search step of   0.198 exceeds DXMaxT=   0.168 but not scaled.
 Quartic linear search produced a step of  2.00000.
 B after Tr=    -0.000000   -0.000000    0.000000
         Rot=    1.000000    0.000000   -0.000000   -0.000000 Ang=   0.00 deg.
 Variable       Old X    -DE/DX   Delta X   Delta X   Delta X     New X
                                 (Linear)    (Quad)   (Total)
    X1        2.31780  -0.00376  -0.00145   0.00000  -0.00145   2.31635
    Y1        2.13934  -0.00446   0.00415   0.00000   0.00415   2.14349
    Z1       -3.15950   0.00674   0.02156   0.00000   0.02156  -3.13794
    X2        1.34771  -0.00378  -0.01037   0.00000  -0.01037   1.33734
    Y2        3.25050   0.00507  -0.04871   0.00000  -0.04871   3.20179
    Z2       -4.21095  -0.00606  -0.03665   0.00000  -0.03665  -4.24760
    X3        3.88522   0.00840  -0.00729   0.00000  -0.00729   3.87793
    Y3        3.00971   0.00226   0.03277   0.00000   0.03277   3.04249
    Z3       -2.90437  -0.00085  -0.00865   0.00000  -0.00865  -2.91302
    X4       -2.44391   0.00508   0.03510   0.00000   0.03510  -2.40882
    Y4        3.13788  -0.00309   0.01872   0.00000   0.01872   3.15660
    Z4        1.47899  -0.00321   0.01383   0.00000   0.01383   1.49283
    X5       -1.58475   0.00206  -0.00410   0.00000  -0.00410  -1.58885
    Y5        4.62294   0.00881   0.04885   0.00000   0.04885   4.67180
    Z5        2.05663   0.00162   0.00878   0.00000   0.00878   2.06541
    X6       -3.95387  -0.00803   0.02737   0.00000   0.02737  -3.92650
    Y6        3.06732  -0.00184  -0.01918   0.00000  -0.01918   3.04814
    Z6        2.47634   0.00299   0.00875   0.00000   0.00875   2.48509
    X7        4.29058  -0.00984  -0.07175   0.00000  -0.07175   4.21882
    Y7       -1.00774   0.00137   0.00282   0.00000   0.00282  -1.00492
    Z7        1.71784  -0.00793   0.02623   0.00000   0.02623   1.74407
    X8       -1.47322   0.00166   0.06782   0.00000   0.06782  -1.40540
    Y8       -3.00731   0.00837   0.03729   0.00000   0.03729  -2.97002
    Z8        3.32144  -0.00813  -0.01987   0.00000  -0.01987   3.30157
    X9       -0.68600  -0.00024  -0.02444   0.00000  -0.02444  -0.71044
    Y9       -4.56971  -0.00970  -0.01934   0.00000  -0.01934  -4.58906
    Z9        2.85164  -0.00136  -0.01352   0.00000  -0.01352   2.83812
   X10       -1.08963  -0.00111  -0.01158   0.00000  -0.01158  -1.10121
   Y10       -2.81560   0.00073  -0.03356   0.00000  -0.03356  -2.84916
   Z10        5.08117   0.00811   0.01303   0.00000   0.01303   5.09420
   X11        4.48335   0.00261  -0.03010   0.00000  -0.03010   4.45325
   Y11       -2.01075  -0.00535   0.01122   0.00000   0.01122  -1.99953
   Z11        3.21391   0.00547   0.03264   0.00000   0.03264   3.24655
   X12        4.80652   0.00713   0.01904   0.00000   0.01904   4.82556
   Y12        0.65479   0.00633  -0.00563   0.00000  -0.00563   0.64915
   Z12        2.21733   0.00276  -0.01486   0.00000  -0.01486   2.20247
   X13       -0.98993  -0.00280   0.03860   0.00000   0.03860  -0.95132
   Y13       -2.60994   0.00268   0.03193   0.00000   0.03193  -2.57802
   Z13       -3.68858   0.01243   0.02186   0.00000   0.02186  -3.66672
   X14       -1.37213  -0.00316  -0.04136   0.00000  -0.04136  -1.41349
   Y14       -1.61959   0.00176  -0.03399   0.00000  -0.03399  -1.65358
   Z14       -5.15665  -0.00721  -0.01161   0.00000  -0.01161  -5.16827
   X15        0.66407   0.00709   0.02672   0.00000   0.02672   0.69078
   Y15       -3.27428  -0.00506   0.01737   0.00000   0.01737  -3.25691
   Z15       -4.01007  -0.00457  -0.04133   0.00000  -0.04133  -4.05140
   X16       -0.00611  -0.00130  -0.01221   0.00000  -0.01221  -0.01832
   Y16       -0.02236  -0.00788  -0.04472   0.00000  -0.04472  -0.06707
   Z16       -0.00010  -0.00082  -0.00020   0.00000  -0.00020  -0.00030
         Item               Value     Threshold  Converged?
 Maximum Force            0.012435     0.000450     NO 
 RMS     Force            0.005520     0.000300     NO 
 Maximum Displacement     0.071752     0.001800     NO 
 RMS     Displacement     0.028630     0.001200     NO 
 Predicted change in Energy=-2.826756D-03
 GradGradGradGradGradGradGradGradGradGradGradGradGradGradGradGradGradGrad

                          Input orientation:                          
 ---------------------------------------------------------------------
 Center     Atomic      Atomic             Coordinates (Angstroms)
 Number     Number       Type             X           Y           Z
 ---------------------------------------------------------------------
      1          8           0        1.225759    1.134287   -1.660526
      2          1           0        0.707689    1.694314   -2.247734
      3          1           0        2.052113    1.610014   -1.541505
      4          8           0       -1.274690    1.670400    0.789971
      5          1           0       -0.840785    2.472209    1.092970
      6          1           0       -2.077817    1.613007    1.315054
      7          8           0        2.232506   -0.531781    0.922923
      8          8           0       -0.743705   -1.571668    1.747117
      9          1           0       -0.375946   -2.428425    1.501868
     10          1           0       -0.582735   -1.507709    2.695736
     11          1           0        2.356557   -1.058105    1.718002
     12          1           0        2.553576    0.343517    1.165497
     13          8           0       -0.503419   -1.364229   -1.940344
     14          1           0       -0.747986   -0.875038   -2.734929
     15          1           0        0.365547   -1.723481   -2.143910
     16         11           0       -0.009693   -0.035494   -0.000159
 ---------------------------------------------------------------------
                    Distance matrix (angstroms):
                    1          2          3          4          5
     1  O    0.000000
     2  H    0.962725   0.000000
     3  H    0.960908   1.520967   0.000000
     4  O    3.541835   3.627403   4.062887   0.000000
     5  H    3.693558   3.763402   4.006582   0.960718   0.000000
     6  H    4.471784   4.523175   5.021579   0.961259   1.522431
     7  O    3.234738   4.163368   3.270051   4.143392   4.300929
     8  O    4.776297   5.360226   5.362344   3.421853   4.097593
     9  H    5.025844   5.677214   5.609508   4.256161   4.939583
    10  H    5.406276   6.029598   5.883608   3.769765   4.298279
    11  H    4.183269   5.101141   4.223261   4.635940   4.803829
    12  H    3.220997   4.108783   3.030402   4.069061   4.007278
    13  O    3.051383   3.303931   3.941565   4.154330   4.902353
    14  H    3.014531   2.992979   3.929415   4.379680   5.085812
    15  H    3.023320   3.436446   3.784123   4.776658   5.434744
    16  Na   2.377298   2.925486   3.055240   2.265966   2.859059
                    6          7          8          9         10
     6  H    0.000000
     7  O    4.830400   0.000000
     8  O    3.479754   3.258603   0.000000
     9  H    4.389127   3.276653   0.964068   0.000000
    10  H    3.725645   3.467114   0.964303   1.521775   0.000000
    11  H    5.192387   0.961538   3.142645   3.064484   3.130103
    12  H    4.804558   0.963367   3.857238   4.047087   3.950332
    13  O    4.684046   4.046796   3.701100   3.605217   4.638979
    14  H    4.935704   4.730861   4.535862   4.527899   5.469891
    15  H    5.391346   3.783008   4.048899   3.786615   4.936393
    16  Na   2.953723   2.475043   2.439585   2.848919   3.124683
                   11         12         13         14         15
    11  H    0.000000
    12  H    1.519416   0.000000
    13  O    4.653673   4.680584   0.000000
    14  H    5.431417   5.253429   0.964617   0.000000
    15  H    4.395590   4.473492   0.962082   1.519577   0.000000
    16  Na   3.097894   2.841259   2.402836   2.954467   2.754228
                   16
    16  Na   0.000000
 Stoichiometry    H10NaO5(1+)
 Framework group  C1[X(H10NaO5)]
 Deg. of freedom    42
 Full point group                 C1      NOp   1
 Largest Abelian subgroup         C1      NOp   1
 Largest concise Abelian subgroup C1      NOp   1
                         Standard orientation:                         
 ---------------------------------------------------------------------
 Center     Atomic      Atomic             Coordinates (Angstroms)
 Number     Number       Type             X           Y           Z
 ---------------------------------------------------------------------
      1          8           0       -2.188565    0.146272   -0.728576
      2          1           0       -2.761940    0.844645   -0.396379
      3          1           0       -2.465891    0.020505   -1.639958
      4          8           0        0.532197    2.349786   -0.193248
      5          1           0        0.420594    2.738917   -1.064511
      6          1           0        1.245753    2.852118    0.209889
      7          8           0        0.419031   -1.518775   -1.672819
      8          8           0        2.325278   -0.415040    0.728531
      9          1           0        2.287010   -1.335396    1.012973
     10          1           0        3.116021   -0.369922    0.178467
     11          1           0        1.277077   -1.927322   -1.819115
     12          1           0        0.259517   -1.008705   -2.474355
     13          8           0       -1.137606   -0.767836    1.986351
     14          1           0       -1.949787   -0.313979    2.241029
     15          1           0       -1.440904   -1.604258    1.620277
     16         11           0        0.037260    0.158922    0.106343
 ---------------------------------------------------------------------
 Rotational constants (GHZ):           1.6192626           1.3393071           1.2834471
 Standard basis: Aug-CC-pVDZ (5D, 7F)
 There are   244 symmetry adapted cartesian basis functions of A   symmetry.
 There are   232 symmetry adapted basis functions of A   symmetry.
   232 basis functions,   406 primitive gaussians,   244 cartesian basis functions
    30 alpha electrons       30 beta electrons
       nuclear repulsion energy       302.1340006564 Hartrees.
 NAtoms=   16 NActive=   16 NUniq=   16 SFac= 1.00D+00 NAtFMM=   60 NAOKFM=F Big=F
 Integral buffers will be    131072 words long.
 Raffenetti 2 integral format.
 Two-electron integral symmetry is turned on.
 Nuclear repulsion after empirical dispersion term =      302.1259168813 Hartrees.
 One-electron integrals computed using PRISM.
 NBasis=   232 RedAO= T EigKep=  3.49D-04  NBF=   232
 NBsUse=   232 1.00D-06 EigRej= -1.00D+00 NBFU=   232
 Initial guess from the checkpoint file:  "sim003_type3_coord-5_2-3-0_10C_b1_id81786_step1560.chk"
 B after Tr=     0.000000    0.000000    0.000000
         Rot=    0.998784   -0.048172    0.009133   -0.005133 Ang=  -5.65 deg.
 ExpMin= 6.16D-03 ExpMax= 3.17D+04 ExpMxC= 1.08D+03 IAcc=3 IRadAn=         5 AccDes= 0.00D+00
 Harris functional with IExCor=  402 and IRadAn=       5 diagonalized for initial guess.
 HarFok:  IExCor=  402 AccDes= 0.00D+00 IRadAn=         5 IDoV= 1 UseB2=F ITyADJ=14
 ICtDFT=  3500011 ScaDFX=  1.000000  1.000000  1.000000  1.000000
 FoFCou: FMM=F IPFlag=           0 FMFlag=      100000 FMFlg1=           0
         NFxFlg=           0 DoJE=T BraDBF=F KetDBF=T FulRan=T
         wScrn=  0.000000 ICntrl=       500 IOpCl=  0 I1Cent=   200000004 NGrid=           0
         NMat0=    1 NMatS0=      1 NMatT0=    0 NMatD0=    1 NMtDS0=    0 NMtDT0=    0
 Petite list used in FoFCou.
 Requested convergence on RMS density matrix=1.00D-08 within 500 cycles.
 Requested convergence on MAX density matrix=1.00D-06.
 Requested convergence on             energy=1.00D-06.
 No special actions if energy rises.
 SCF Done:  E(RB3LYP) =  -544.447104231     A.U. after    9 cycles
            NFock=  9  Conv=0.36D-08     -V/T= 2.0057
 DoSCS=F DFT=T ScalE2(SS,OS)=  1.000000  1.000000
 Range of M.O.s used for correlation:     1   232
 NBasis=   232 NAE=    30 NBE=    30 NFC=     0 NFV=     0
 NROrb=    232 NOA=    30 NOB=    30 NVA=   202 NVB=   202

 **** Warning!!: The largest alpha MO coefficient is  0.14330816D+02

 Symmetrizing basis deriv contribution to polar:
 IMax=3 JMax=2 DiffMx= 0.00D+00
 G2DrvN: will do    17 centers at a time, making    1 passes.
 Calling FoFCou, ICntrl=  3107 FMM=F I1Cent=   0 AccDes= 1.00D-11.
 End of G2Drv F.D. properties file   721 does not exist.
 End of G2Drv F.D. properties file   722 does not exist.
 End of G2Drv F.D. properties file   788 does not exist.
          IDoAtm=1111111111111111
          Differentiating once with respect to electric field.
                with respect to dipole field.
          Differentiating once with respect to nuclear coordinates.
 Keep R1 ints in memory in canonical form, NReq=408195318.
          There are    51 degrees of freedom in the 1st order CPHF.  IDoFFX=6 NUNeed=     3.
     48 vectors produced by pass  0 Test12= 1.19D-14 1.96D-09 XBig12= 2.22D+01 9.94D-01.
 AX will form    48 AO Fock derivatives at one time.
     48 vectors produced by pass  1 Test12= 1.19D-14 1.96D-09 XBig12= 2.08D+00 2.48D-01.
     48 vectors produced by pass  2 Test12= 1.19D-14 1.96D-09 XBig12= 3.45D-02 3.15D-02.
     48 vectors produced by pass  3 Test12= 1.19D-14 1.96D-09 XBig12= 7.66D-05 9.47D-04.
     48 vectors produced by pass  4 Test12= 1.19D-14 1.96D-09 XBig12= 8.33D-08 2.42D-05.
     20 vectors produced by pass  5 Test12= 1.19D-14 1.96D-09 XBig12= 6.17D-11 9.16D-07.
      3 vectors produced by pass  6 Test12= 1.19D-14 1.96D-09 XBig12= 4.46D-14 1.97D-08.
 InvSVY:  IOpt=1 It=  1 EMax= 1.78D-15
 Solved reduced A of dimension   263 with    51 vectors.
 Isotropic polarizability for W=    0.000000       46.74 Bohr**3.
 End of Minotr F.D. properties file   721 does not exist.
 End of Minotr F.D. properties file   722 does not exist.
 End of Minotr F.D. properties file   788 does not exist.
 Calling FoFJK, ICntrl=    100127 FMM=F ISym2X=0 I1Cent= 0 IOpClX= 0 NMat=1 NMatS=1 NMatT=0.
 ***** Axes restored to original set *****
 -------------------------------------------------------------------
 Center     Atomic                   Forces (Hartrees/Bohr)
 Number     Number              X              Y              Z
 -------------------------------------------------------------------
      1        8          -0.003394547   -0.000858968    0.004315664
      2        1          -0.001352507    0.002398847   -0.003322267
      3        1           0.005713475    0.001293834   -0.001127157
      4        8           0.003680428   -0.001720742   -0.001205314
      5        1           0.000638493    0.006058550    0.000747828
      6        1          -0.005198840   -0.001218770    0.001583037
      7        8          -0.006630695    0.004402009   -0.003734424
      8        8           0.004394491    0.002615329   -0.002796573
      9        1          -0.002595449   -0.004571745   -0.000281338
     10        1          -0.002277514    0.000720832    0.002021597
     11        1           0.001778681   -0.003694383    0.002866406
     12        1           0.005246556    0.001587733    0.000853346
     13        8          -0.001031061    0.003696794    0.005524358
     14        1          -0.002246745   -0.001388232   -0.001893204
     15        1           0.003836781   -0.003530898   -0.003365255
     16       11          -0.000561548   -0.005790189   -0.000186703
 -------------------------------------------------------------------
 Cartesian Forces:  Max     0.006630695 RMS     0.003242039

 GradGradGradGradGradGradGradGradGradGradGradGradGradGradGradGradGradGrad
 Berny optimization.
 Search for a local minimum.
 Step number   3 out of a maximum of  500
 All quantities printed in internal units (Hartrees-Bohrs-Radians)
 Second derivative matrix not updated -- analytic derivatives used.
 ITU=  0  1  0
 Linear search step of   0.266 exceeds DXMaxT=   0.168 but not scaled.
 Quintic linear search produced a step of  1.34292.
 B after Tr=     0.000000   -0.000000    0.000000
         Rot=    1.000000    0.000000   -0.000000   -0.000000 Ang=   0.00 deg.
 Variable       Old X    -DE/DX   Delta X   Delta X   Delta X     New X
                                 (Linear)    (Quad)   (Total)
    X1        2.31635  -0.00339  -0.00195   0.00000  -0.00195   2.31440
    Y1        2.14349  -0.00086   0.00558   0.00000   0.00558   2.14907
    Z1       -3.13794   0.00432   0.02895   0.00000   0.02895  -3.10898
    X2        1.33734  -0.00135  -0.01392   0.00000  -0.01392   1.32341
    Y2        3.20179   0.00240  -0.06542   0.00000  -0.06542   3.13637
    Z2       -4.24760  -0.00332  -0.04922   0.00000  -0.04922  -4.29682
    X3        3.87793   0.00571  -0.00979   0.00000  -0.00979   3.86814
    Y3        3.04249   0.00129   0.04401   0.00000   0.04401   3.08650
    Z3       -2.91302  -0.00113  -0.01162   0.00000  -0.01162  -2.92464
    X4       -2.40882   0.00368   0.04713   0.00000   0.04713  -2.36168
    Y4        3.15660  -0.00172   0.02514   0.00000   0.02514   3.18174
    Z4        1.49283  -0.00121   0.01858   0.00000   0.01858   1.51141
    X5       -1.58885   0.00064  -0.00551   0.00000  -0.00551  -1.59436
    Y5        4.67180   0.00606   0.06561   0.00000   0.06561   4.73741
    Z5        2.06541   0.00075   0.01179   0.00000   0.01179   2.07720
    X6       -3.92650  -0.00520   0.03675   0.00000   0.03675  -3.88975
    Y6        3.04814  -0.00122  -0.02575   0.00000  -0.02575   3.02239
    Z6        2.48509   0.00158   0.01175   0.00000   0.01175   2.49684
    X7        4.21882  -0.00663  -0.09636   0.00000  -0.09636   4.12247
    Y7       -1.00492   0.00440   0.00379   0.00000   0.00379  -1.00113
    Z7        1.74407  -0.00373   0.03523   0.00000   0.03523   1.77930
    X8       -1.40540   0.00439   0.09108   0.00000   0.09108  -1.31432
    Y8       -2.97002   0.00262   0.05008   0.00000   0.05008  -2.91994
    Z8        3.30157  -0.00280  -0.02669   0.00000  -0.02669   3.27489
    X9       -0.71044  -0.00260  -0.03282   0.00000  -0.03282  -0.74325
    Y9       -4.58906  -0.00457  -0.02598   0.00000  -0.02598  -4.61503
    Z9        2.83812  -0.00028  -0.01816   0.00000  -0.01816   2.81996
   X10       -1.10121  -0.00228  -0.01556   0.00000  -0.01556  -1.11677
   Y10       -2.84916   0.00072  -0.04507   0.00000  -0.04507  -2.89423
   Z10        5.09420   0.00202   0.01750   0.00000   0.01750   5.11171
   X11        4.45325   0.00178  -0.04042   0.00000  -0.04042   4.41282
   Y11       -1.99953  -0.00369   0.01507   0.00000   0.01507  -1.98446
   Z11        3.24655   0.00287   0.04384   0.00000   0.04384   3.29039
   X12        4.82556   0.00525   0.02557   0.00000   0.02557   4.85113
   Y12        0.64915   0.00159  -0.00757   0.00000  -0.00757   0.64159
   Z12        2.20247   0.00085  -0.01995   0.00000  -0.01995   2.18252
   X13       -0.95132  -0.00103   0.05184   0.00000   0.05184  -0.89948
   Y13       -2.57802   0.00370   0.04287   0.00000   0.04287  -2.53515
   Z13       -3.66672   0.00552   0.02936   0.00000   0.02936  -3.63736
   X14       -1.41349  -0.00225  -0.05554   0.00000  -0.05554  -1.46903
   Y14       -1.65358  -0.00139  -0.04564   0.00000  -0.04564  -1.69922
   Z14       -5.16827  -0.00189  -0.01560   0.00000  -0.01560  -5.18386
   X15        0.69078   0.00384   0.03588   0.00000   0.03588   0.72666
   Y15       -3.25691  -0.00353   0.02333   0.00000   0.02333  -3.23358
   Z15       -4.05140  -0.00337  -0.05551   0.00000  -0.05551  -4.10691
   X16       -0.01832  -0.00056  -0.01640   0.00000  -0.01640  -0.03472
   Y16       -0.06707  -0.00579  -0.06005   0.00000  -0.06005  -0.12713
   Z16       -0.00030  -0.00019  -0.00027   0.00000  -0.00027  -0.00057
         Item               Value     Threshold  Converged?
 Maximum Force            0.006631     0.000450     NO 
 RMS     Force            0.003242     0.000300     NO 
 Maximum Displacement     0.096357     0.001800     NO 
 RMS     Displacement     0.038448     0.001200     NO 
 Predicted change in Energy=-2.132095D-03
 GradGradGradGradGradGradGradGradGradGradGradGradGradGradGradGradGradGrad

                          Input orientation:                          
 ---------------------------------------------------------------------
 Center     Atomic      Atomic             Coordinates (Angstroms)
 Number     Number       Type             X           Y           Z
 ---------------------------------------------------------------------
      1          8           0        1.224728    1.137239   -1.645204
      2          1           0        0.700321    1.659698   -2.273782
      3          1           0        2.046932    1.633304   -1.547652
      4          8           0       -1.249748    1.683704    0.799802
      5          1           0       -0.843699    2.506927    1.099209
      6          1           0       -2.058369    1.599379    1.321270
      7          8           0        2.181516   -0.529776    0.941566
      8          8           0       -0.695509   -1.545165    1.732996
      9          1           0       -0.393311   -2.442171    1.492259
     10          1           0       -0.590967   -1.531559    2.704999
     11          1           0        2.335166   -1.050133    1.741200
     12          1           0        2.567110    0.339513    1.154938
     13          8           0       -0.475986   -1.341542   -1.924806
     14          1           0       -0.777375   -0.899191   -2.743182
     15          1           0        0.384533   -1.711136   -2.173284
     16         11           0       -0.018371   -0.067272   -0.000301
 ---------------------------------------------------------------------
                    Distance matrix (angstroms):
                    1          2          3          4          5
     1  O    0.000000
     2  H    0.971121   0.000000
     3  H    0.965203   1.530138   0.000000
     4  O    3.521322   3.640091   4.047367   0.000000
     5  H    3.699491   3.805110   4.015575   0.965513   0.000000
     6  H    4.448850   4.531932   5.008529   0.965871   1.532441
     7  O    3.222695   4.162475   3.300490   4.085727   4.289329
     8  O    4.721741   5.317307   5.327879   3.406410   4.104034
     9  H    5.027316   5.674894   5.639623   4.270343   4.985069
    10  H    5.416964   6.053082   5.921141   3.794956   4.353367
    11  H    4.181555   5.112336   4.254463   4.605616   4.813523
    12  H    3.206111   4.121154   3.041130   4.062188   4.041584
    13  O    3.019099   3.242363   3.918809   4.144190   4.908217
    14  H    3.059578   2.991961   3.977378   4.409901   5.135174
    15  H    3.016295   3.387084   3.786854   4.799485   5.478122
    16  Na   2.387854   2.944088   3.090587   2.285251   2.918320
                    6          7          8          9         10
     6  H    0.000000
     7  O    4.759632   0.000000
     8  O    3.451820   3.151927   0.000000
     9  H    4.374446   3.254267   0.976677   0.000000
    10  H    3.724345   3.435102   0.977704   1.529386   0.000000
    11  H    5.147756   0.966330   3.070848   3.073163   3.118161
    12  H    4.796872   0.974615   3.811934   4.076230   3.984601
    13  O    4.657248   3.992164   3.670037   3.590900   4.635130
    14  H    4.939997   4.740135   4.523290   4.524076   5.487925
    15  H    5.398072   3.785109   4.056237   3.817809   4.978102
    16  Na   2.947180   2.437319   2.376342   2.829923   3.129002
                   11         12         13         14         15
    11  H    0.000000
    12  H    1.525981   0.000000
    13  O    4.628941   4.644481   0.000000
    14  H    5.460804   5.283494   0.977880   0.000000
    15  H    4.423244   4.477261   0.968934   1.527766   0.000000
    16  Na   3.088361   2.860902   2.353061   2.965059   2.754355
                   16
    16  Na   0.000000
 Stoichiometry    H10NaO5(1+)
 Framework group  C1[X(H10NaO5)]
 Deg. of freedom    42
 Full point group                 C1      NOp   1
 Largest Abelian subgroup         C1      NOp   1
 Largest concise Abelian subgroup C1      NOp   1
                         Standard orientation:                         
 ---------------------------------------------------------------------
 Center     Atomic      Atomic             Coordinates (Angstroms)
 Number     Number       Type             X           Y           Z
 ---------------------------------------------------------------------
      1          8           0       -2.163217    0.211129   -0.758036
      2          1           0       -2.774945    0.830145   -0.327126
      3          1           0       -2.444423    0.199014   -1.681287
      4          8           0        0.506280    2.359784    0.052380
      5          1           0        0.406190    2.872780   -0.759429
      6          1           0        1.212343    2.801133    0.541863
      7          8           0        0.498121   -1.292695   -1.778602
      8          8           0        2.276689   -0.479014    0.693090
      9          1           0        2.276042   -1.422923    0.943951
     10          1           0        3.130730   -0.375712    0.228495
     11          1           0        1.358256   -1.685806   -1.977161
     12          1           0        0.309733   -0.743554   -2.561436
     13          8           0       -1.175268   -0.983443    1.832700
     14          1           0       -1.989634   -0.579085    2.192633
     15          1           0       -1.496807   -1.788400    1.399698
     16         11           0        0.042879    0.124210    0.151595
 ---------------------------------------------------------------------
 Rotational constants (GHZ):           1.6518248           1.3639561           1.2993856
 Standard basis: Aug-CC-pVDZ (5D, 7F)
 There are   244 symmetry adapted cartesian basis functions of A   symmetry.
 There are   232 symmetry adapted basis functions of A   symmetry.
   232 basis functions,   406 primitive gaussians,   244 cartesian basis functions
    30 alpha electrons       30 beta electrons
       nuclear repulsion energy       303.7369845965 Hartrees.
 NAtoms=   16 NActive=   16 NUniq=   16 SFac= 1.00D+00 NAtFMM=   60 NAOKFM=F Big=F
 Integral buffers will be    131072 words long.
 Raffenetti 2 integral format.
 Two-electron integral symmetry is turned on.
 Nuclear repulsion after empirical dispersion term =      303.7289182443 Hartrees.
 One-electron integrals computed using PRISM.
 NBasis=   232 RedAO= T EigKep=  3.33D-04  NBF=   232
 NBsUse=   232 1.00D-06 EigRej= -1.00D+00 NBFU=   232
 Initial guess from the checkpoint file:  "sim003_type3_coord-5_2-3-0_10C_b1_id81786_step1560.chk"
 B after Tr=    -0.000000    0.000000    0.000000
         Rot=    0.998423   -0.054655    0.011836   -0.004873 Ang=  -6.44 deg.
 ExpMin= 6.16D-03 ExpMax= 3.17D+04 ExpMxC= 1.08D+03 IAcc=3 IRadAn=         5 AccDes= 0.00D+00
 Harris functional with IExCor=  402 and IRadAn=       5 diagonalized for initial guess.
 HarFok:  IExCor=  402 AccDes= 0.00D+00 IRadAn=         5 IDoV= 1 UseB2=F ITyADJ=14
 ICtDFT=  3500011 ScaDFX=  1.000000  1.000000  1.000000  1.000000
 FoFCou: FMM=F IPFlag=           0 FMFlag=      100000 FMFlg1=           0
         NFxFlg=           0 DoJE=T BraDBF=F KetDBF=T FulRan=T
         wScrn=  0.000000 ICntrl=       500 IOpCl=  0 I1Cent=   200000004 NGrid=           0
         NMat0=    1 NMatS0=      1 NMatT0=    0 NMatD0=    1 NMtDS0=    0 NMtDT0=    0
 Petite list used in FoFCou.
 Requested convergence on RMS density matrix=1.00D-08 within 500 cycles.
 Requested convergence on MAX density matrix=1.00D-06.
 Requested convergence on             energy=1.00D-06.
 No special actions if energy rises.
 SCF Done:  E(RB3LYP) =  -544.448922895     A.U. after    9 cycles
            NFock=  9  Conv=0.55D-08     -V/T= 2.0059
 DoSCS=F DFT=T ScalE2(SS,OS)=  1.000000  1.000000
 Range of M.O.s used for correlation:     1   232
 NBasis=   232 NAE=    30 NBE=    30 NFC=     0 NFV=     0
 NROrb=    232 NOA=    30 NOB=    30 NVA=   202 NVB=   202

 **** Warning!!: The largest alpha MO coefficient is  0.15790608D+02

 Symmetrizing basis deriv contribution to polar:
 IMax=3 JMax=2 DiffMx= 0.00D+00
 G2DrvN: will do    17 centers at a time, making    1 passes.
 Calling FoFCou, ICntrl=  3107 FMM=F I1Cent=   0 AccDes= 1.00D-11.
 End of G2Drv F.D. properties file   721 does not exist.
 End of G2Drv F.D. properties file   722 does not exist.
 End of G2Drv F.D. properties file   788 does not exist.
          IDoAtm=1111111111111111
          Differentiating once with respect to electric field.
                with respect to dipole field.
          Differentiating once with respect to nuclear coordinates.
 Keep R1 ints in memory in canonical form, NReq=408195318.
          There are    51 degrees of freedom in the 1st order CPHF.  IDoFFX=6 NUNeed=     3.
     48 vectors produced by pass  0 Test12= 1.19D-14 1.96D-09 XBig12= 2.27D+01 8.73D-01.
 AX will form    48 AO Fock derivatives at one time.
     48 vectors produced by pass  1 Test12= 1.19D-14 1.96D-09 XBig12= 2.26D+00 2.40D-01.
     48 vectors produced by pass  2 Test12= 1.19D-14 1.96D-09 XBig12= 3.34D-02 2.70D-02.
     48 vectors produced by pass  3 Test12= 1.19D-14 1.96D-09 XBig12= 7.30D-05 9.97D-04.
     48 vectors produced by pass  4 Test12= 1.19D-14 1.96D-09 XBig12= 8.40D-08 2.67D-05.
     19 vectors produced by pass  5 Test12= 1.19D-14 1.96D-09 XBig12= 6.30D-11 1.12D-06.
      3 vectors produced by pass  6 Test12= 1.19D-14 1.96D-09 XBig12= 4.48D-14 2.17D-08.
 InvSVY:  IOpt=1 It=  1 EMax= 3.55D-15
 Solved reduced A of dimension   262 with    51 vectors.
 Isotropic polarizability for W=    0.000000       47.11 Bohr**3.
 End of Minotr F.D. properties file   721 does not exist.
 End of Minotr F.D. properties file   722 does not exist.
 End of Minotr F.D. properties file   788 does not exist.
 Calling FoFJK, ICntrl=    100127 FMM=F ISym2X=0 I1Cent= 0 IOpClX= 0 NMat=1 NMatS=1 NMatT=0.
 ***** Axes restored to original set *****
 -------------------------------------------------------------------
 Center     Atomic                   Forces (Hartrees/Bohr)
 Number     Number              X              Y              Z
 -------------------------------------------------------------------
      1        8          -0.003739890    0.005413466   -0.000956588
      2        1           0.003278816   -0.002092494    0.002309841
      3        1           0.001613594   -0.000477521   -0.001450823
      4        8           0.001590662    0.000780457    0.001975088
      5        1          -0.001568138    0.001408782   -0.000638734
      6        1          -0.000937814   -0.000045200   -0.000534288
      7        8           0.000639721    0.011612662    0.003124686
      8        8           0.008170622   -0.011234488    0.009019029
      9        1          -0.006173165    0.006711567    0.001333819
     10        1          -0.003710909    0.002106090   -0.010611484
     11        1           0.000234082   -0.001409246   -0.001164683
     12        1           0.000405156   -0.007946980   -0.002342167
     13        8           0.000541742    0.005497560   -0.009077116
     14        1           0.000949384   -0.006763919    0.009248827
     15        1          -0.001719268   -0.000871102   -0.000704421
     16       11           0.000425405   -0.002689636    0.000469014
 -------------------------------------------------------------------
 Cartesian Forces:  Max     0.011612662 RMS     0.004670170

 GradGradGradGradGradGradGradGradGradGradGradGradGradGradGradGradGradGrad
 Berny optimization.
 Search for a local minimum.
 Step number   4 out of a maximum of  500
 All quantities printed in internal units (Hartrees-Bohrs-Radians)
 Second derivative matrix not updated -- analytic derivatives used.
 ITU=  0  0  1  0
     Eigenvalues ---   -0.00028  -0.00007  -0.00001   0.00016   0.00031
     Eigenvalues ---    0.00042   0.00071   0.00078   0.00147   0.00213
[...]
     1          0.36744351          5.81858616         -2.14949298
     1          2.90737097          4.38558469         -2.02095586
     8          0.40036816          0.07165324          3.88229864
     1          0.42220320          1.52049086          4.99166004
     1          0.38416516         -1.37720855          4.99171260
     8          4.96982949          0.35662351         -1.18730908
     8         -0.35289183         -4.04889591         -1.75065999
     1         -2.14950335         -4.22513092         -2.03105274
     1          0.39008498         -5.65682305         -2.17907312
     1          5.92830928         -0.32768146         -2.58279722
     1          6.12033691          0.32085798          0.23034407
     8         -4.20764415         -0.19981617         -1.16569844
     1         -5.35282727         -0.17183844          0.25643306
     1         -5.17137766          0.49225350         -2.55372646
    11          0.38291271          0.07641569         -0.52721976

 Electric dipole moment (dipole orientation):
 (Debye = 10**-18 statcoulomb cm , SI units = C m)
                  (au)            (Debye)         (10**-30 SI)
   Tot        0.241489D+00      0.613803D+00      0.204743D+01
   x          0.000000D+00      0.000000D+00      0.000000D+00
   y          0.000000D+00      0.000000D+00      0.000000D+00
   z          0.241489D+00      0.613803D+00      0.204743D+01

 Dipole polarizability, Alpha (dipole orientation).
 (esu units = cm**3 , SI units = C**2 m**2 J**-1)
 Alpha(0;0):
               (au)            (10**-24 esu)      (10**-40 SI)
   iso        0.472763D+02      0.700562D+01      0.779480D+01
   aniso      0.327699D+01      0.485600D+00      0.540303D+00
   xx         0.481389D+02      0.713345D+01      0.793703D+01
   yx        -0.135192D+01     -0.200334D+00     -0.222901D+00
   yy         0.479374D+02      0.710360D+01      0.790382D+01
   zx        -0.106683D-01     -0.158088D-02     -0.175897D-02
   zy         0.770349D-02      0.114154D-02      0.127013D-02
   zz         0.457524D+02      0.677981D+01      0.754355D+01

 ----------------------------------------------------------------------

 Test job not archived.
 1\1\GINC-N640\Freq\RB3LYP\Aug-CC-pVDZ\H10Na1O5(1+)\HNR2\18-Jul-2022\0\
 \#N Geom=AllCheck Guess=TCheck SCRF=Check Test GenChk RB3LYP/Aug-CC-pV
 DZ Freq\\MD frame sim003_type3_coord-5_2-3-0_10C_b1_id81786_step1560\\
 1,1\O,1.7506254959,0.9207904143,-1.4945948907\H,1.9077514059,1.1530591
 351,-2.4172709303\H,2.5400371593,1.1948966812,-1.0084925931\O,-1.13753
 89136,1.5548411063,0.7452898627\H,-1.2379381407,2.4473850751,0.3905203
 338\H,-1.7768193539,1.4971404395,1.4667880251\O,2.2906598351,0.5700945
 685,1.3321871904\O,-0.2780081182,-2.0399876279,1.1157655686\H,-0.87743
 40228,-2.5281585974,0.5352738916\H,-0.152581312,-2.5898884231,1.897972
 0103\H,2.9859972915,-0.0035110785,1.6803161693\H,2.2336958173,1.299607
 3455,1.9633556821\O,-1.1951129479,-1.2652652559,-1.5232226752\H,-2.086
 95473,-0.9291384316,-1.6827342556\H,-0.9604336643,-1.7361478598,-2.333
 7239817\Na,0.3310241983,-0.1038974915,0.0126005928\\Version=ES64L-G16R
 evB.01\State=1-A\HF=-544.4638806\RMSD=7.058e-10\RMSF=8.278e-07\ZeroPoi
 nt=0.1191476\Thermal=0.1371803\Dipole=-0.1525593,0.1714985,0.0750379\D
 ipoleDeriv=-0.5212595,0.0391214,-0.0161973,0.0393409,-0.5904311,-0.008
 0285,-0.004021,-0.0054064,-0.6115852,0.2802153,-0.0266767,0.0246069,-0
 .0277436,0.3199648,0.0232044,0.0271287,0.0243268,0.27093,0.2302346,-0.
 0365482,0.0117657,-0.0381735,0.2862006,-0.0161761,0.0057383,-0.0177077
 ,0.4032122,-0.5718628,-0.0338204,-0.0462213,-0.0347396,-0.5321881,-0.0
 209594,-0.0441353,-0.0191849,-0.556757,0.3054158,0.0321181,0.0139595,0
 .0355513,0.2530618,-0.0002862,0.0116073,0.001378,0.3118562,0.2793717,0
 .0308599,0.0361189,0.0285352,0.2957001,-0.0072187,0.0360627,-0.010951,
 0.295243,-0.581769,-0.0490304,0.0515593,-0.0462305,-0.5382484,0.04398,
 0.0477491,0.040318,-0.5296138,-0.5827773,0.0511014,0.0010716,0.0444797
 ,-0.5318414,0.0044016,0.0034333,0.0145882,-0.6086352,0.2779704,-0.0539
 738,0.0168173,-0.0494003,0.2579969,-0.0429795,0.016117,-0.0473967,0.38
 36219,0.3216822,-0.0227739,-0.0055283,-0.0234948,0.2583245,0.031791,-0
 .0040316,0.0342603,0.291165,0.2913376,0.0210649,-0.0435957,0.0192918,0
 .3087448,-0.0023534,-0.0416339,-0.0050343,0.2607648,0.3183375,0.001986
 1,-0.0243192,0.0012478,0.2920584,-0.0276589,-0.0275025,-0.0231261,0.24
 99517,-0.5181999,-0.051817,0.0275785,-0.0509151,-0.6102838,0.0376515,0
 .0230477,0.0338468,-0.5210842,0.2650196,0.0167258,-0.0351202,0.0169256
 ,0.3252702,0.0063539,-0.0307689,0.002892,0.2700207,0.2983229,0.0108706
 ,-0.0261271,0.0124779,0.3190155,-0.0224562,-0.0277462,-0.0194313,0.243
 4737,0.9079609,0.0707923,0.0136314,0.0728474,0.8866552,0.0007344,0.008
 9552,-0.0033715,0.8474363\Polar=46.5251942,0.2873176,46.2912038,0.8990
 867,-0.6437602,49.0123533\Quadrupole=1.1650287,-1.4418784,0.2768497,2.
 9360648,3.0414686,0.9708232\PG=C01 [X(H10Na1O5)]\NImag=0\\0.41742795,0
 .16891771,0.09525019,0.10699283,-0.06459606,0.65229489,-0.05511797,-0.
 04165808,0.10027419,0.04932587,-0.03305694,-0.04008905,0.12823010,0.03
 239859,0.03703469,0.05100870,0.10608989,-0.47722134,-0.06172500,-0.114
 60980,0.49827595,-0.35415204,-0.12270418,-0.21203262,0.00503158,0.0005
 2118,0.01114774,0.35270231,-0.13064802,-0.05094421,-0.06939441,0.00910
 077,0.00233737,0.00854974,0.12304812,0.05010188,-0.16489038,-0.0480694
 8,-0.15737989,-0.03842939,-0.01393256,-0.02056454,0.20254098,0.0623144
 9,0.17536385,-0.00050198,0.00041523,0.00118771,-0.00019371,-0.00001361
 ,-0.00024160,0.00037567,-0.00013760,-0.00033620,0.27459749,-0.00010833
 ,0.00078998,0.00002550,0.00003642,-0.00013743,-0.00005376,0.00012672,-
 0.00026415,-0.00001028,-0.06193779,0.49988442,0.00118813,-0.00043667,0
 .00001587,-0.00014636,0.00005522,0.00014664,-0.00015432,0.00009823,-0.
 00054816,-0.25693943,-0.18864523,0.38325272,0.00035787,-0.00078394,-0.
 00046732,0.00001609,0.00009517,0.00018856,-0.00026712,0.00027410,0.000
 06192,-0.03272948,0.07680726,-0.00796262,0.03007799,-0.00034867,-0.000
 13589,0.00011273,0.00002291,0.00007976,-0.00002955,0.00000836,0.000094
 84,0.00003748,0.04191085,-0.44440649,0.18360590,-0.04785445,0.44965430
 ,-0.00055391,0.00048188,-0.00037254,0.00024293,-0.00017280,-0.00006351
 ,0.00003837,-0.00001912,0.00030862,0.01014732,0.14594523,-0.08987065,-
 0.00525941,-0.18040570,0.10156908,-0.00000917,-0.00000667,-0.00002004,
 -0.00003724,0.00004668,0.00001999,0.00001357,-0.00002226,0.00011606,-0
 .23368795,-0.02184588,0.26060901,0.00208701,0.00600514,-0.00454116,0.2
 3214918,0.00020464,-0.00010369,-0.00014364,0.00003858,0.00002634,0.000
 02302,-0.00003691,0.00004695,-0.00002675,0.01301836,-0.04448373,0.0072
 7956,-0.03010370,-0.00426245,0.03518365,0.01623378,0.04760086,-0.00014
 458,0.00006858,0.00007978,0.00001669,-0.00000111,-0.00001306,0.0000686
 2,-0.00005834,0.00004058,0.24255418,0.04499772,-0.28886140,0.01421044,
 -0.00387727,-0.01259257,-0.25705077,-0.04108159,0.30157746,0.00117292,
 -0.00018684,-0.00147239,0.00028284,-0.00012541,-0.00037314,-0.00217066
 ,0.00093302,-0.00116328,-0.00134804,0.00059298,-0.00079641,-0.00004431
 ,-0.00023664,0.00030160,0.00041028,-0.00001179,-0.00000978,0.30707858,
 -0.00046871,0.00173231,0.00109472,-0.00004679,0.00062338,-0.00004928,0
 .00080063,-0.00281376,-0.00148010,0.00113801,0.00064701,0.00006133,-0.
 00044863,-0.00002706,-0.00015863,-0.00003319,-0.00031874,0.00015699,-0
 .24324633,0.49887570,-0.00033372,0.00162355,-0.00676406,-0.00066497,-0
 .00008863,0.00006680,-0.00062057,-0.00121539,0.00116297,-0.00025716,-0
 .00016161,0.00070436,0.00020568,0.00001779,-0.00016775,-0.00025423,0.0
 0014416,-0.00026322,0.14468565,0.15408495,0.34461464,0.00034372,-0.000
 37331,0.00045869,-0.00012637,0.00000876,-0.00008072,-0.00001780,0.0002
 7787,-0.00029104,0.00071792,0.00071377,-0.00012935,-0.00007580,-0.0000
 4073,0.00009223,-0.00023232,-0.00079604,-0.00011784,-0.00037757,-0.001
 59874,-0.00000395,0.22954936,-0.00027286,-0.00003762,0.00049153,-0.000
 02414,-0.00007586,-0.00010958,0.00011666,0.00000673,-0.00013469,0.0001
 1142,-0.00134472,0.00051148,0.00015707,0.00007233,-0.00024369,-0.00034
 117,0.00062417,0.00010523,-0.00097584,-0.00043217,0.00005749,0.1499801
 9,0.37600883,0.00043997,0.00056253,0.00019639,-0.00005537,-0.00013367,
 0.00002203,-0.00004734,-0.00002038,-0.00040731,0.00004816,0.00020680,0
 .00093697,-0.00000068,-0.00000615,-0.00003307,-0.00025194,0.00042857,-
 0.00054513,-0.00067694,-0.00069099,0.00092319,0.24702209,-0.10736405,0
 .55944645,-0.00006968,0.00020048,-0.00008981,0.00005661,-0.00003343,0.
 00003179,0.00000024,-0.00007601,0.00001555,-0.00029131,-0.00008619,-0.
 00010430,0.00001877,0.00003507,-0.00001673,0.00017815,0.00014063,0.000
 12957,-0.00000683,0.00005621,0.00001155,-0.19893864,-0.15262153,-0.195
 56445,0.20451451,0.00022510,0.00003720,0.00008287,-0.00006501,-0.00001
 317,0.00001430,-0.00002068,0.00004324,-0.00010270,0.00024845,0.0003851
 7,0.00022372,-0.00001064,-0.00005452,0.00002855,-0.00010393,-0.0001926
 4,-0.00018303,-0.00012670,-0.00022694,0.00009605,-0.17569130,-0.163480
 94,-0.15248155,0.16009273,0.15472696,-0.00026546,-0.00017577,-0.000385
 72,0.00013041,0.00011351,0.00003665,-0.00000504,-0.00005196,0.00023714
 ,-0.00008389,0.00018672,-0.00053030,0.00000470,0.00005977,0.00013741,0
 .00006175,-0.00027754,0.00015080,0.00029319,0.00043601,-0.00019494,-0.
 17257540,-0.11150117,-0.20007278,0.19551776,0.13483258,0.21893915,-0.0
 0016266,0.00001054,-0.00006602,0.00001862,-0.00001714,0.00000730,0.000
 03808,-0.00006859,0.00012096,-0.00012223,-0.00016557,0.00006456,0.0000
 4409,0.00003813,-0.00000386,0.00003970,0.00020238,-0.00006785,-0.00004
 394,0.00058457,-0.00026655,-0.02764203,0.00545523,-0.05025756,-0.00350
 094,0.01792136,-0.02380205,0.03050417,-0.00001422,-0.00004346,-0.00008
 985,-0.00002635,0.00001230,0.00002004,-0.00001069,-0.00001112,0.000123
 36,-0.00003921,0.00003060,-0.00021073,0.00002025,-0.00004740,-0.000009
 97,0.00011239,-0.00017337,0.00015474,0.00037195,0.00036772,-0.00041240
 ,0.02927246,-0.19790377,0.25110683,-0.00618557,0.01075011,-0.02229733,
 -0.02344148,0.18642220,-0.00005934,-0.00013057,0.00002559,-0.00000522,
 0.00002957,-0.00001141,0.00001735,0.00004273,0.00005321,-0.00001136,-0
 .00025026,-0.00009151,0.00001404,-0.00001578,-0.00002011,0.00002747,0.
 00004761,0.00016516,0.00000410,-0.00009540,-0.00034959,-0.07428561,0.2
 0813690,-0.34687603,0.00052256,0.02087843,-0.02044531,0.07426556,-0.22
 918079,0.36770222,-0.00012896,0.00007958,0.00039114,0.00012843,0.00001
 859,0.00009985,0.00040587,-0.00029667,-0.00038741,-0.00008951,-0.00004
 258,0.00011776,-0.00003789,0.00000918,-0.00004469,-0.00008564,0.000076
 11,-0.00007068,-0.27020435,0.22543237,-0.12551454,0.00062852,0.0002640
 2,0.00047047,0.00001035,0.00004223,-0.00020758,-0.00029628,-0.00030126
 ,-0.00001866,0.27329985,-0.00012020,-0.00026069,-0.00051109,-0.0000123
 1,0.00006209,0.00003238,0.00031926,0.00000166,0.00065768,-0.00034748,-
 0.00002219,-0.00007541,0.00003370,0.00000768,0.00003347,0.00005250,0.0
 0008482,-0.00000128,0.19697305,-0.19640505,0.06992361,0.00063604,-0.00
 023366,0.00023085,-0.00005274,0.00002555,-0.00014020,-0.00043956,-0.00
 007407,0.00006001,-0.22504491,0.21625871,0.00051282,-0.00048085,-0.000
 71923,0.00000675,-0.00008692,-0.00029579,-0.00114893,0.00103788,0.0000
 9229,0.00005202,0.00002513,0.00005142,-0.00001055,-0.00001488,0.000009
 14,-0.00003074,-0.00001149,0.00001933,-0.15404352,0.10774341,-0.098314
 59,0.00012599,-0.00006130,-0.00029704,-0.00003717,0.00000228,0.0000503
 2,0.00009320,0.00011629,0.00018577,0.13226341,-0.08629979,0.09057595,-
 0.00031189,0.00016297,-0.00030480,0.00004393,0.00005732,0.00004433,0.0
 0018144,0.00010536,0.00037840,0.00113363,0.00017838,0.00094400,-0.0001
 6404,0.00013311,-0.00032439,-0.00043840,-0.00010093,-0.00010578,-0.029
 50879,0.01780255,-0.01422236,-0.00030512,0.00013269,0.00021534,0.00000
 276,-0.00003715,0.00000195,0.00007080,-0.00012295,-0.00008008,-0.00272
 765,0.02824124,0.02270995,0.03113560,0.00030556,-0.00060615,0.00058653
 ,0.00010423,0.00001952,0.00014951,-0.00027084,0.00094185,-0.00040620,-
 0.00017308,-0.00065726,0.00003663,0.00035551,0.00012259,0.00015737,-0.
 00002775,0.00017353,-0.00009145,0.04643460,-0.29805172,-0.22277915,0.0
 0022732,0.00016205,0.00024220,-0.00005923,0.00006103,-0.00007271,-0.00
 011792,-0.00016092,-0.00007556,-0.00131911,-0.02069593,-0.02284790,-0.
 04492764,0.31860667,-0.00007276,0.00070888,-0.00022360,-0.00011445,0.0
 0019495,-0.00018561,0.00009975,-0.00133026,-0.00053718,0.00050996,0.00
 019004,-0.00030571,-0.00027937,-0.00000546,0.00000373,0.00013215,-0.00
 005621,0.00023319,0.01352292,-0.26096743,-0.23717622,0.00009296,0.0000
 3053,-0.00010512,0.00001923,-0.00000977,0.00002138,-0.00003467,0.00006
 410,0.00010095,-0.00615986,0.01610465,0.00832372,-0.00777129,0.2460750
 9,0.23006381,-0.00096738,-0.00117522,-0.00066093,0.00021084,0.00046376
 ,-0.00012493,-0.00001213,-0.00011707,0.00040551,0.00076858,0.00048956,
 0.00010618,-0.00020326,-0.00005454,0.00011204,-0.00018351,-0.00022844,
 -0.00021790,0.00006296,-0.00008036,-0.00033843,0.00107244,0.00059862,-
 0.00269257,-0.00294582,0.00053487,0.00037986,0.00035754,-0.00018289,-0
 .00039541,0.00003278,-0.00001939,0.00011204,-0.00014426,0.00008911,0.0
 0005247,0.51106792,-0.00126953,0.00016614,-0.00054335,0.00053893,-0.00
 000709,-0.00007052,-0.00000373,-0.00016418,0.00034258,-0.00010017,-0.0
 0053303,-0.00152436,0.00007750,0.00038438,0.00031036,-0.00008642,-0.00
 026297,0.00032545,-0.00012711,0.00037152,-0.00024781,0.00010636,0.0003
 2835,0.00223547,0.00029468,-0.00081247,-0.00252898,-0.00010008,0.00065
 415,-0.00003991,-0.00005551,-0.00019669,0.00000036,0.00009438,-0.00006
 218,0.00009739,-0.22582957,0.20240368,0.00029084,0.00015392,0.00091414
 ,-0.00050475,-0.00033239,-0.00023004,0.00001799,0.00008732,-0.00025256
 ,-0.00033270,-0.00120648,-0.00022986,0.00010848,0.00010013,-0.00035079
 ,0.00003312,0.00028578,0.00021008,-0.00036935,-0.00023606,0.00019157,-
 0.00208312,0.00325524,-0.00525911,0.00067786,-0.00204323,-0.00005838,-
 0.00046841,-0.00032250,-0.00003799,0.00013705,0.00003755,-0.00005113,0
 .00009258,0.00009776,-0.00002571,0.00101480,0.19287045,0.43706412,0.00
 028752,0.00006075,0.00016437,-0.00016731,-0.00007346,-0.00001285,0.000
 00715,-0.00001529,-0.00008207,-0.00032417,0.00020690,0.00040525,0.0000
 8245,-0.00005252,-0.00008449,0.00018532,0.00011947,0.00006824,0.000054
 70,0.00002086,0.00010433,-0.00001916,-0.00000352,0.00047443,0.00007072
 ,0.00007205,-0.00061688,0.00013420,0.00001945,0.00003075,-0.00000509,-
 0.00001598,-0.00002569,-0.00000195,-0.00000026,-0.00002381,-0.43753035
 ,0.17069221,-0.05850990,0.44998617,0.00012257,-0.00038999,0.00001972,-
 0.00015288,0.00012387,-0.00000061,-0.00003023,-0.00000164,0.00000488,0
 .00062102,0.00026981,0.00105768,-0.00023084,-0.00031358,-0.00030629,-0
 .00001417,0.00010379,-0.00029894,0.00004275,-0.00017918,-0.00000395,-0
 .00026903,-0.00014320,-0.00016581,0.00086362,-0.00015466,0.00020983,0.
 00003456,0.00002665,0.00014918,0.00002462,0.00006110,0.00000549,-0.000
 08381,0.00004566,-0.00003746,0.15048776,-0.07194222,0.00304459,-0.1732
 3710,0.07846505,-0.00006789,-0.00008416,-0.00014627,0.00011013,0.00000
 958,0.00005435,-0.00001576,0.00001630,0.00007945,0.00069426,0.00077644
 ,0.00022617,-0.00008307,-0.00012910,0.00019866,-0.00017444,-0.00031289
 ,-0.00032739,0.00010591,-0.00003763,-0.00010748,0.00052076,-0.00003946
 ,-0.00097988,-0.00127772,0.00029732,0.00066967,0.00004924,-0.00002053,
 -0.00028258,-0.00001785,0.00000735,0.00002029,-0.00009330,-0.00000066,
 -0.00000007,-0.10529539,0.02428495,-0.05526733,0.06786656,-0.00894602,
 0.05136125,0.00006523,0.00058897,0.00052464,-0.00010910,-0.00042811,-0
 .00002948,-0.00004190,0.00001207,-0.00015700,-0.00009081,-0.00026542,-
 0.00013201,0.00007858,0.00001862,-0.00003809,0.00001584,0.00000582,0.0
 0002601,-0.00014434,0.00001321,0.00013010,-0.00061399,0.00036001,-0.00
 032254,0.00051470,-0.00032350,0.00024705,-0.00000151,0.00004610,-0.000
 05807,0.00001546,-0.00001189,-0.00007264,0.00005476,-0.00002823,-0.000
 02879,-0.06675309,0.05550679,0.06148409,-0.01157806,0.02303600,0.03899
 856,0.07715318,0.00055935,0.00020249,0.00052493,-0.00038920,-0.0002256
 6,-0.00005751,-0.00004397,0.00011588,-0.00017271,-0.00003279,-0.000126
 55,0.00005044,0.00002364,-0.00002554,-0.00011530,-0.00001000,-0.000006
 17,-0.00005333,0.00000981,-0.00008301,0.00013020,0.00045377,-0.0006090
 7,0.00027492,-0.00062938,0.00096006,0.00035737,0.00015943,0.00000128,0
 .00019694,0.00000576,0.00005522,-0.00001058,0.00000861,0.00001737,-0.0
 0002589,0.07606692,-0.12638492,-0.19357382,0.00189096,-0.00728849,-0.0
 1657390,-0.07804989,0.13347685,0.00009502,0.00012809,-0.00016903,0.000
 08316,0.00008589,0.00015011,0.00001405,-0.00001125,0.00001245,0.000092
 09,0.00009022,0.00015380,-0.00003642,-0.00006773,-0.00003393,-0.000028
 26,-0.00002311,-0.00003012,0.00008023,0.00010111,0.00001203,-0.0002064
 0,0.00045857,0.00011564,0.00030940,-0.00064664,-0.00097626,-0.00015242
 ,0.00015097,-0.00010535,-0.00004148,-0.00003687,-0.00001369,-0.0000124
 3,-0.00001652,0.00000445,0.10785756,-0.21550694,-0.37177038,-0.0088773
 4,0.00545968,0.00376389,-0.09949167,0.21041937,0.36949244,-0.00823348,
 -0.00354799,0.00512035,0.00063690,0.00013808,0.00003947,-0.00209426,-0
 .00236980,0.00209738,-0.00821409,0.00529976,0.00292991,0.00075907,0.00
 040618,-0.00006778,-0.00040481,0.00123805,0.00071144,-0.00521345,0.000
 07433,-0.00266083,-0.00396316,-0.00293686,0.00119894,0.00038643,-0.002
 75787,0.00091966,0.00056240,0.00048203,0.00003190,-0.00094590,-0.00019
 132,-0.00050694,0.00097920,-0.00059227,0.00005556,-0.00483327,0.000261
 29,-0.00158858,-0.00118213,-0.00121484,-0.00132000,0.00143507,-0.00002
 303,0.00031492,0.03032548,-0.00402744,-0.00556757,0.00410980,0.0001343
 2,0.00022895,0.00010175,-0.00181968,0.00050867,0.00085499,0.00531839,-
 0.01003144,-0.00208779,0.00158800,-0.00114294,-0.00070901,0.00004094,0
 .00114331,-0.00016236,-0.00032147,-0.00407999,-0.00116889,-0.00290739,
 -0.01294146,0.00557443,-0.00193933,-0.00205398,0.00084986,-0.00005584,
 0.00014909,0.00024687,0.00110759,0.00133145,0.00088286,-0.00164415,0.0
 0008389,-0.00103317,-0.00104314,-0.00394247,-0.00221825,0.00031548,0.0
 0131702,0.00075241,-0.00048054,-0.00007974,-0.00058484,0.00573427,0.03
 507722,0.00585974,0.00415624,-0.01014499,0.00078125,0.00063907,-0.0001
 6725,0.00007972,-0.00004558,0.00233907,0.00291664,-0.00211619,-0.00505
 038,-0.00069440,0.00061783,0.00127827,0.00135203,-0.00145912,0.0001565
 2,-0.00008879,0.00003700,-0.00433770,0.00146073,0.00640695,-0.00706519
 ,-0.00014508,-0.00098918,0.00242115,0.00051857,0.00080780,-0.00001302,
 -0.00101694,-0.00002292,0.00036324,-0.00147213,-0.00105495,-0.00019200
 ,-0.00031488,-0.00000515,-0.00484663,-0.00088090,-0.00019198,0.0007372
 6,-0.00108015,-0.00137115,-0.00060607,-0.00727540,-0.00540867,0.025127
 74\\-0.00000109,-0.00000061,-0.00000176,-0.00000076,-0.00000042,-0.000
 00064,-0.00000042,-0.00000005,-0.00000091,-0.00000005,0.00000072,-0.00
 000036,0.00000006,-0.00000042,-0.00000005,0.00000054,0.00000035,-0.000
 00011,0.00000072,0.00000148,-0.00000161,0.00000131,0.00000081,0.000001
 80,0.00000033,0.00000001,0.00000084,0.00000073,0.00000037,0.00000071,0
 .00000026,0.00000082,-0.00000072,0.00000032,0.00000048,-0.00000095,-0.
 00000085,-0.00000161,0.00000173,-0.00000021,-0.00000073,0.00000077,-0.
 00000043,-0.00000065,0.00000080,-0.00000048,-0.00000058,0.00000044\\\@


 THERE IS NOTHING NOBLE IN BEING SUPERIOR TO SOME OTHER MAN.
 TRUE NOBILITY IS BEING SUPERIOR TO YOUR FORMER SELF.

                                                   -- HINDU PROVERB
 Job cpu time:       0 days  1 hours  1 minutes 14.2 seconds.
 Elapsed time:       0 days  0 hours  1 minutes 33.1 seconds.
 File lengths (MBytes):  RWF=     88 Int=      0 D2E=      0 Chk=      6 Scr=      1
 Normal termination of Gaussian 16 at Mon Jul 18 21:33:41 2022.
