 Entering Gaussian System, Link 0=g16
 Initial command:
 /share/sw/gaussian/g16_B.01_avx2-enabled/g16/l1.exe "/scratch/hnr2/2615644/Gau-6527.inp" -scrdir="/scratch/hnr2/2615644/"
 Entering Link 1 = /share/sw/gaussian/g16_B.01_avx2-enabled/g16/l1.exe PID=      6528.
  
 Copyright (c) 1988-2017, Gaussian, Inc.  All Rights Reserved.
  
 This is part of the Gaussian(R) 16 program.  It is based on
 the Gaussian(R) 09 system (copyright 2009, Gaussian, Inc.),
 the Gaussian(R) 03 system (copyright 2003, Gaussian, Inc.),
 the Gaussian(R) 98 system (copyright 1998, Gaussian, Inc.),
 the Gaussian(R) 94 system (copyright 1995, Gaussian, Inc.),
 the Gaussian 92(TM) system (copyright 1992, Gaussian, Inc.),
 the Gaussian 90(TM) system (copyright 1990, Gaussian, Inc.),
 the Gaussian 88(TM) system (copyright 1988, Gaussian, Inc.),
 the Gaussian 86(TM) system (copyright 1986, Carnegie Mellon
 University), and the Gaussian 82(TM) system (copyright 1983,
 Carnegie Mellon University). Gaussian is a federally registered
 trademark of Gaussian, Inc.
  
 This software contains proprietary and confidential information,
 including trade secrets, belonging to Gaussian, Inc.
  
 This software is provided under written license and may be
 used, copied, transmitted, or stored only in accord with that
 written license.
  
 The following legend is applicable only to US Government
 contracts under FAR:
  
                    RESTRICTED RIGHTS LEGEND
  
 Use, reproduction and disclosure by the US Government is
 subject to restrictions as set forth in subparagraphs (a)
 and (c) of the Commercial Computer Software - Restricted
 Rights clause in FAR 52.227-19.
  
 Gaussian, Inc.
 340 Quinnipiac St., Bldg. 40, Wallingford CT 06492
  
  
 ---------------------------------------------------------------
 Warning -- This program may not be used in any manner that
 competes with the business of Gaussian, Inc. or will provide
 assistance to any competitor of Gaussian, Inc.  The licensee
 of this program is prohibited from giving any competitor of
 Gaussian, Inc. access to this program.  By using this program,
 the user acknowledges that Gaussian, Inc. is engaged in the
 business of creating and licensing software in the field of
 computational chemistry and represents and warrants to the
 licensee that it is not a competitor of Gaussian, Inc. and that
 it will not use this program in any manner prohibited above.
 ---------------------------------------------------------------
  

 Cite this work as:
 Gaussian 16, Revision B.01,
 M. J. Frisch, G. W. Trucks, H. B. Schlegel, G. E. Scuseria, 
 M. A. Robb, J. R. Cheeseman, G. Scalmani, V. Barone, 
 G. A. Petersson, H. Nakatsuji, X. Li, M. Caricato, A. V. Marenich, 
 J. Bloino, B. G. Janesko, R. Gomperts, B. Mennucci, H. P. Hratchian, 
 J. V. Ortiz, A. F. Izmaylov, J. L. Sonnenberg, D. Williams-Young, 
 F. Ding, F. Lipparini, F. Egidi, J. Goings, B. Peng, A. Petrone, 
 T. Henderson, D. Ranasinghe, V. G. Zakrzewski, J. Gao, N. Rega, 
 G. Zheng, W. Liang, M. Hada, M. Ehara, K. Toyota, R. Fukuda, 
 J. Hasegawa, M. Ishida, T. Nakajima, Y. Honda, O. Kitao, H. Nakai, 
 T. Vreven, K. Throssell, J. A. Montgomery, Jr., J. E. Peralta, 
 F. Ogliaro, M. J. Bearpark, J. J. Heyd, E. N. Brothers, K. N. Kudin, 
 V. N. Staroverov, T. A. Keith, R. Kobayashi, J. Normand, 
 K. Raghavachari, A. P. Rendell, J. C. Burant, S. S. Iyengar, 
 J. Tomasi, M. Cossi, J. M. Millam, M. Klene, C. Adamo, R. Cammi, 
 J. W. Ochterski, R. L. Martin, K. Morokuma, O. Farkas, 
 J. B. Foresman, and D. J. Fox, Gaussian, Inc., Wallingford CT, 2016.
 
 ******************************************
 Gaussian 16:  ES64L-G16RevB.01 20-Dec-2017
                18-Jul-2022 
 ******************************************
 %nprocshared=40
 Will use up to   40 processors via shared memory.
 %mem=60GB
 %chk=sim007_type3_coord-5_5-0-0_10C_b1_id81786_step4900.chk
 ----------------------------------------------------------------------
 # opt=(calcall,maxcycles=500,maxstep=10,cartesian) freq iop(1/152=500,
 1/8=10) scf=(maxcycle=500) int(Acc2E=11,grid=ultrafine) rb3lyp/aug-cc-
 pvdz empiricaldispersion=gd3
 ----------------------------------------------------------------------
 1/6=500,8=10,10=4,18=10,26=4,38=1,152=500/1,3;
 2/12=2,17=6,18=5,29=2,40=1/2;
 3/5=16,7=10,11=2,25=1,27=11,30=1,71=2,74=-5,75=-5,116=1,124=31,140=1/1,2,3;
 4//1;
 5/5=2,7=500,38=5,87=11/2;
 8/6=4,10=90,11=11,87=11/1;
 11/6=1,8=1,9=11,15=111,16=1,87=11/1,2,10;
 10/6=1,87=11/2;
 6/7=2,8=2,9=2,10=2,18=1,28=1,87=11/1;
 7/7=1,10=1,25=1,87=11/1,2,3,16;
 1/6=500,8=10,10=4,18=10,26=4,152=500/3(3);
 2/29=1/2;
 7/7=1,8=1,9=1,25=1,44=-1,87=11/16;
 99/12=1/99;
 2/29=1/2;
 3/5=16,7=10,11=2,25=1,27=11,30=1,71=2,74=-5,75=-5,116=1,124=31,140=1/1,2,3;
 4/5=5,16=3,69=1/1;
 5/5=2,7=500,38=5,87=11/2;
 8/6=4,10=90,11=11,87=11/1;
 11/6=1,8=1,9=11,15=111,16=1,87=11/1,2,10;
 10/6=1,87=11/2;
 7/7=1,10=1,25=1,87=11/1,2,3,16;
 1/6=500,8=10,10=4,18=10,26=4,152=500/3(-8);
 2/29=1/2;
 6/7=2,8=2,9=2,10=2,18=1,19=2,28=1,87=11/1;
 7/7=1,8=1,9=1,25=1,44=-1,87=11/16;
 99/12=1/99;
 -----------------------------------------------------------
 MD frame sim007_type3_coord-5_5-0-0_10C_b1_id81786_step4900
 -----------------------------------------------------------
 Symbolic Z-matrix:
 Charge =  1 Multiplicity = 1
 O                    -1.144    -2.009     0.33519 
 H                    -2.067    -1.77099   0.42309 
 H                    -1.068    -2.34999  -0.55581 
 H                    -0.605     1.29375   2.31785 
 O                    -1.00555   0.53925  -1.91471 
 H                    -0.46455   1.25815  -2.24181 
 H                    -0.81355  -0.19164  -2.50181 
 O                     1.79054  -1.28199   0.76985 
 O                    -1.192     0.80726   1.73886 
 H                     1.65004  -2.19999   1.00184 
 H                     2.63504  -1.06199   1.16285 
 H                    -1.907     0.52165   2.30685 
 O                     1.229     2.02201  -0.08715 
 H                     1.573     2.13201  -0.97315 
 H                     0.75801   2.83501   0.09085 
 Na                    0.        0.        0. 
 

 GradGradGradGradGradGradGradGradGradGradGradGradGradGradGradGradGradGrad
 Berny optimization.
 Initialization pass.
 No Z-matrix variables, so optimization will use Cartesian coordinates.
 Trust Radius=1.00D-01 FncErr=1.00D-07 GrdErr=1.00D-06 EigMax=2.50D+02 EigMin=1.00D-04
 Number of steps in this run=    500 maximum allowed number of steps=    500.
 GradGradGradGradGradGradGradGradGradGradGradGradGradGradGradGradGradGrad

 ---------------------------------------------------------------------------------------------------
                            Z-MATRIX (ANGSTROMS AND DEGREES)
   CD    Cent   Atom    N1       Length/X        N2       Alpha/Y        N3        Beta/Z          J
 ---------------------------------------------------------------------------------------------------
      1      1  O        0  -1.144000         -2.009000          0.335190
      2      2  H        0  -2.067000         -1.770990          0.423090
      3      3  H        0  -1.068000         -2.349990         -0.555810
      4      4  H        0  -0.605000          1.293750          2.317850
      5      5  O        0  -1.005550          0.539250         -1.914710
      6      6  H        0  -0.464550          1.258150         -2.241810
      7      7  H        0  -0.813550         -0.191640         -2.501810
      8      8  O        0   1.790540         -1.281990          0.769850
      9      9  O        0  -1.192000          0.807260          1.738860
     10     10  H        0   1.650040         -2.199990          1.001840
     11     11  H        0   2.635040         -1.061990          1.162850
     12     12  H        0  -1.907000          0.521650          2.306850
     13     13  O        0   1.229000          2.022010         -0.087150
     14     14  H        0   1.573000          2.132010         -0.973150
     15     15  H        0   0.758010          2.835010          0.090850
     16     16  Na       0   0.000000          0.000000          0.000000
 ---------------------------------------------------------------------------------------------------
                         Z-Matrix orientation:                         
 ---------------------------------------------------------------------
 Center     Atomic      Atomic             Coordinates (Angstroms)
 Number     Number       Type             X           Y           Z
 ---------------------------------------------------------------------
      1          8           0       -1.144000   -2.009000    0.335190
      2          1           0       -2.067000   -1.770990    0.423090
      3          1           0       -1.068000   -2.349990   -0.555810
      4          1           0       -0.605000    1.293750    2.317850
      5          8           0       -1.005550    0.539250   -1.914710
      6          1           0       -0.464550    1.258150   -2.241810
      7          1           0       -0.813550   -0.191640   -2.501810
      8          8           0        1.790540   -1.281990    0.769850
      9          8           0       -1.192000    0.807260    1.738860
     10          1           0        1.650040   -2.199990    1.001840
     11          1           0        2.635040   -1.061990    1.162850
     12          1           0       -1.907000    0.521650    2.306850
     13          8           0        1.229000    2.022010   -0.087150
     14          1           0        1.573000    2.132010   -0.973150
     15          1           0        0.758010    2.835010    0.090850
     16         11           0        0.000000    0.000000    0.000000
 ---------------------------------------------------------------------
                    Distance matrix (angstroms):
                    1          2          3          4          5
     1  O    0.000000
     2  H    0.957238   0.000000
     3  H    0.957043   1.513766   0.000000
     4  H    3.889681   3.888469   4.663596   0.000000
     5  O    3.402175   3.453867   3.193465   4.317902   0.000000
     6  H    4.216260   4.341109   4.028079   4.561962   0.957336
     7  H    3.385345   3.552538   2.917214   5.047673   0.956949
     8  O    3.054341   3.903841   3.327048   3.843092   4.282744
     9  O    3.147048   3.023946   3.905011   0.957325   3.668129
    10  H    2.878812   3.786209   3.136322   4.361572   4.802276
    11  H    3.982837   4.812391   4.280799   4.169100   5.028841
    12  H    3.297545   2.971590   4.140659   1.513758   4.316769
    13  O    4.696652   5.050823   4.960870   3.110939   3.245268
    14  H    5.122676   5.516566   5.218944   4.034482   3.173695
    15  H    5.209777   5.413529   5.535044   3.031964   3.521779
    16  Na   2.336059   2.754614   2.640455   2.722543   2.228909
                    6          7          8          9         10
     6  H    0.000000
     7  H    1.513701   0.000000
     8  O    4.539586   4.321332   0.000000
     9  O    4.071636   4.373135   3.768221   0.000000
    10  H    5.191482   4.730572   0.957227   4.202849   0.000000
    11  H    5.155795   5.106860   0.957094   4.297920   1.513669
    12  H    4.828395   4.982733   4.391730   0.956771   4.665073
    13  O    2.845023   3.860420   3.459218   3.266676   4.380463
    14  H    2.554357   3.664938   3.839371   4.093310   4.761591
    15  H    3.069600   4.283958   4.298470   3.260406   5.193924
    16  Na   2.612367   2.637734   2.332853   2.257469   2.926819
                   11         12         13         14         15
    11  H    0.000000
    12  H    4.944368   0.000000
    13  O    3.612548   4.220997   0.000000
    14  H    3.986485   5.045994   0.956782   0.000000
    15  H    4.456348   4.167082   0.956287   1.513444   0.000000
    16  Na   3.069769   3.038145   2.367818   2.822555   2.936003
                   16
    16  Na   0.000000
 Stoichiometry    H10NaO5(1+)
 Framework group  C1[X(H10NaO5)]
 Deg. of freedom    42
 Full point group                 C1      NOp   1
 Largest Abelian subgroup         C1      NOp   1
 Largest concise Abelian subgroup C1      NOp   1
                         Standard orientation:                         
 ---------------------------------------------------------------------
 Center     Atomic      Atomic             Coordinates (Angstroms)
 Number     Number       Type             X           Y           Z
 ---------------------------------------------------------------------
      1          8           0        2.199118   -0.717151   -0.059036
      2          1           0        2.230109   -1.438198    0.569801
      3          1           0        2.229094   -1.143988   -0.915099
      4          1           0       -0.387398    0.727732    2.461255
      5          8           0       -0.858419   -1.959231   -0.885780
      6          1           0       -1.751094   -1.721988   -1.137453
      7          1           0       -0.406022   -2.105461   -1.716265
      8          8           0        0.944725    1.925064   -0.938921
      9          8           0        0.031247   -0.065784    2.127278
     10          1           0        1.895361    1.971994   -1.040763
     11          1           0        0.653839    2.835886   -0.981550
     12          1           0        0.638340   -0.326355    2.819341
     13          8           0       -2.223893    0.862517   -0.046147
     14          1           0       -2.673761    0.643901   -0.861780
     15          1           0       -2.806482    0.545173    0.642597
     16         11           0       -0.033110   -0.032001   -0.129021
 ---------------------------------------------------------------------
 Rotational constants (GHZ):           1.7583227           1.4959780           1.3271773
 Standard basis: Aug-CC-pVDZ (5D, 7F)
 There are   244 symmetry adapted cartesian basis functions of A   symmetry.
 There are   232 symmetry adapted basis functions of A   symmetry.
   232 basis functions,   406 primitive gaussians,   244 cartesian basis functions
    30 alpha electrons       30 beta electrons
       nuclear repulsion energy       312.1769214034 Hartrees.
 NAtoms=   16 NActive=   16 NUniq=   16 SFac= 1.00D+00 NAtFMM=   60 NAOKFM=F Big=F
 Integral buffers will be    131072 words long.
 Raffenetti 2 integral format.
 Two-electron integral symmetry is turned on.
 Nuclear repulsion after empirical dispersion term =      312.1688349714 Hartrees.
 One-electron integrals computed using PRISM.
 NBasis=   232 RedAO= T EigKep=  2.90D-04  NBF=   232
 NBsUse=   232 1.00D-06 EigRej= -1.00D+00 NBFU=   232
 ExpMin= 6.16D-03 ExpMax= 3.17D+04 ExpMxC= 1.08D+03 IAcc=3 IRadAn=         5 AccDes= 0.00D+00
 Harris functional with IExCor=  402 and IRadAn=       5 diagonalized for initial guess.
 HarFok:  IExCor=  402 AccDes= 0.00D+00 IRadAn=         5 IDoV= 1 UseB2=F ITyADJ=14
 ICtDFT=  3500011 ScaDFX=  1.000000  1.000000  1.000000  1.000000
 FoFCou: FMM=F IPFlag=           0 FMFlag=      100000 FMFlg1=           0
         NFxFlg=           0 DoJE=T BraDBF=F KetDBF=T FulRan=T
         wScrn=  0.000000 ICntrl=       500 IOpCl=  0 I1Cent=   200000004 NGrid=           0
         NMat0=    1 NMatS0=      1 NMatT0=    0 NMatD0=    1 NMtDS0=    0 NMtDT0=    0
 Petite list used in FoFCou.
 Requested convergence on RMS density matrix=1.00D-08 within 500 cycles.
 Requested convergence on MAX density matrix=1.00D-06.
 Requested convergence on             energy=1.00D-06.
 No special actions if energy rises.
 SCF Done:  E(RB3LYP) =  -544.440509405     A.U. after   10 cycles
            NFock= 10  Conv=0.34D-08     -V/T= 2.0053
 DoSCS=F DFT=T ScalE2(SS,OS)=  1.000000  1.000000
 Range of M.O.s used for correlation:     1   232
 NBasis=   232 NAE=    30 NBE=    30 NFC=     0 NFV=     0
 NROrb=    232 NOA=    30 NOB=    30 NVA=   202 NVB=   202

 **** Warning!!: The largest alpha MO coefficient is  0.15691745D+02

 Symmetrizing basis deriv contribution to polar:
 IMax=3 JMax=2 DiffMx= 0.00D+00
 G2DrvN: will do    17 centers at a time, making    1 passes.
 Calling FoFCou, ICntrl=  3107 FMM=F I1Cent=   0 AccDes= 1.00D-11.
 End of G2Drv F.D. properties file   721 does not exist.
 End of G2Drv F.D. properties file   722 does not exist.
 End of G2Drv F.D. properties file   788 does not exist.
          IDoAtm=1111111111111111
          Differentiating once with respect to electric field.
                with respect to dipole field.
          Differentiating once with respect to nuclear coordinates.
 Keep R1 ints in memory in canonical form, NReq=408195318.
          There are    51 degrees of freedom in the 1st order CPHF.  IDoFFX=6 NUNeed=     3.
     48 vectors produced by pass  0 Test12= 1.19D-14 1.96D-09 XBig12= 2.18D+01 1.14D+00.
 AX will form    48 AO Fock derivatives at one time.
     48 vectors produced by pass  1 Test12= 1.19D-14 1.96D-09 XBig12= 1.94D+00 3.10D-01.
     48 vectors produced by pass  2 Test12= 1.19D-14 1.96D-09 XBig12= 3.12D-02 2.56D-02.
     48 vectors produced by pass  3 Test12= 1.19D-14 1.96D-09 XBig12= 6.27D-05 1.11D-03.
     48 vectors produced by pass  4 Test12= 1.19D-14 1.96D-09 XBig12= 7.83D-08 3.49D-05.
     23 vectors produced by pass  5 Test12= 1.19D-14 1.96D-09 XBig12= 6.35D-11 9.11D-07.
      3 vectors produced by pass  6 Test12= 1.19D-14 1.96D-09 XBig12= 4.04D-14 2.58D-08.
 InvSVY:  IOpt=1 It=  1 EMax= 1.78D-15
 Solved reduced A of dimension   266 with    51 vectors.
 Isotropic polarizability for W=    0.000000       45.86 Bohr**3.
 End of Minotr F.D. properties file   721 does not exist.
 End of Minotr F.D. properties file   722 does not exist.
 End of Minotr F.D. properties file   788 does not exist.

 **********************************************************************

            Population analysis using the SCF Density.

 **********************************************************************

 Orbital symmetries:
       Occupied  (A) (A) (A) (A) (A) (A) (A) (A) (A) (A) (A) (A)
                 (A) (A) (A) (A) (A) (A) (A) (A) (A) (A) (A) (A)
                 (A) (A) (A) (A) (A) (A)
       Virtual   (A) (A) (A) (A) (A) (A) (A) (A) (A) (A) (A) (A)
                 (A) (A) (A) (A) (A) (A) (A) (A) (A) (A) (A) (A)
                 (A) (A) (A) (A) (A) (A) (A) (A) (A) (A) (A) (A)
                 (A) (A) (A) (A) (A) (A) (A) (A) (A) (A) (A) (A)
                 (A) (A) (A) (A) (A) (A) (A) (A) (A) (A) (A) (A)
                 (A) (A) (A) (A) (A) (A) (A) (A) (A) (A) (A) (A)
                 (A) (A) (A) (A) (A) (A) (A) (A) (A) (A) (A) (A)
                 (A) (A) (A) (A) (A) (A) (A) (A) (A) (A) (A) (A)
                 (A) (A) (A) (A) (A) (A) (A) (A) (A) (A) (A) (A)
                 (A) (A) (A) (A) (A) (A) (A) (A) (A) (A) (A) (A)
                 (A) (A) (A) (A) (A) (A) (A) (A) (A) (A) (A) (A)
                 (A) (A) (A) (A) (A) (A) (A) (A) (A) (A) (A) (A)
                 (A) (A) (A) (A) (A) (A) (A) (A) (A) (A) (A) (A)
                 (A) (A) (A) (A) (A) (A) (A) (A) (A) (A) (A) (A)
                 (A) (A) (A) (A) (A) (A) (A) (A) (A) (A) (A) (A)
                 (A) (A) (A) (A) (A) (A) (A) (A) (A) (A) (A) (A)
                 (A) (A) (A) (A) (A) (A) (A) (A) (A) (A)
 The electronic state is 1-A.
 Alpha  occ. eigenvalues --  -38.57665 -19.33184 -19.32666 -19.31757 -19.31447
 Alpha  occ. eigenvalues --  -19.30832  -2.31529  -1.25106  -1.24944  -1.24888
 Alpha  occ. eigenvalues --   -1.19928  -1.19378  -1.18534  -1.18186  -1.17473
 Alpha  occ. eigenvalues --   -0.71596  -0.70933  -0.70249  -0.69666  -0.68913
 Alpha  occ. eigenvalues --   -0.58336  -0.57720  -0.57017  -0.56625  -0.55802
 Alpha  occ. eigenvalues --   -0.50939  -0.49282  -0.48886  -0.48169  -0.47519
 Alpha virt. eigenvalues --   -0.18151  -0.14812  -0.14263  -0.12890  -0.10368
 Alpha virt. eigenvalues --   -0.09541  -0.08635  -0.07604  -0.07220  -0.06737
 Alpha virt. eigenvalues --   -0.05796  -0.05588  -0.05246  -0.05111  -0.05040
 Alpha virt. eigenvalues --   -0.04433  -0.03459  -0.02155  -0.00863  -0.00619
 Alpha virt. eigenvalues --   -0.00151   0.00232   0.00755   0.00925   0.01663
 Alpha virt. eigenvalues --    0.01875   0.02210   0.02331   0.03152   0.03504
 Alpha virt. eigenvalues --    0.04111   0.04770   0.05103   0.05644   0.05986
 Alpha virt. eigenvalues --    0.06145   0.06970   0.07152   0.07384   0.08012
 Alpha virt. eigenvalues --    0.08448   0.09155   0.10063   0.11968   0.12858
 Alpha virt. eigenvalues --    0.14061   0.14481   0.15353   0.16236   0.16643
 Alpha virt. eigenvalues --    0.17516   0.18329   0.18954   0.19132   0.19789
 Alpha virt. eigenvalues --    0.20673   0.21453   0.22809   0.24062   0.26237
 Alpha virt. eigenvalues --    0.26765   0.28281   0.28507   0.29853   0.30187
 Alpha virt. eigenvalues --    0.31362   0.31455   0.32388   0.33272   0.33727
 Alpha virt. eigenvalues --    0.34444   0.34944   0.35688   0.36758   0.36953
 Alpha virt. eigenvalues --    0.37960   0.38787   0.39284   0.39892   0.41256
 Alpha virt. eigenvalues --    0.41673   0.42832   0.43176   0.43636   0.44036
 Alpha virt. eigenvalues --    0.45264   0.45627   0.47255   0.48094   0.48335
 Alpha virt. eigenvalues --    0.49202   0.56013   0.58502   0.60405   0.62306
 Alpha virt. eigenvalues --    0.64213   0.66763   0.67989   0.69831   0.71174
 Alpha virt. eigenvalues --    0.72704   0.78170   0.79741   0.81290   0.81938
 Alpha virt. eigenvalues --    0.84113   0.84430   0.86736   0.88078   0.88704
 Alpha virt. eigenvalues --    0.89066   0.90039   0.92232   0.94506   0.97286
 Alpha virt. eigenvalues --    0.98696   1.00896   1.03837   1.05011   1.06839
 Alpha virt. eigenvalues --    1.10446   1.12025   1.13787   1.16227   1.16651
 Alpha virt. eigenvalues --    1.18254   1.19892   1.24350   1.25654   1.28227
 Alpha virt. eigenvalues --    1.31979   1.39796   1.41534   1.46804   1.49150
 Alpha virt. eigenvalues --    1.54047   1.59362   1.62145   1.62513   1.65971
 Alpha virt. eigenvalues --    1.68322   1.68894   1.73619   1.75544   1.76923
 Alpha virt. eigenvalues --    1.78085   1.79171   1.80997   1.82931   1.85814
 Alpha virt. eigenvalues --    1.87497   1.97667   1.99292   2.00076   2.02250
 Alpha virt. eigenvalues --    2.02674   2.03226   2.05455   2.06633   2.06985
 Alpha virt. eigenvalues --    2.09236   2.17911   2.18527   2.19777   2.19902
 Alpha virt. eigenvalues --    2.22005   2.31452   2.31980   2.32832   2.39775
 Alpha virt. eigenvalues --    2.41239   2.46501   2.58473   2.61542   2.64111
 Alpha virt. eigenvalues --    2.66457   2.72198   3.15411   3.16033   3.17202
 Alpha virt. eigenvalues --    3.17876   3.18779   3.19683   3.20816   3.22729
 Alpha virt. eigenvalues --    3.23585   3.24397   3.25239   3.26168   3.29411
 Alpha virt. eigenvalues --    3.30106   3.30952   3.51859   3.53297   3.54206
 Alpha virt. eigenvalues --    3.56848   3.59612   3.76361   3.77226   3.79136
 Alpha virt. eigenvalues --    3.79554   3.81916
          Condensed to atoms (all electrons):
               1          2          3          4          5          6
     1  O    7.621124   0.294979   0.307474   0.000844  -0.011723  -0.000224
     2  H    0.294979   0.624194  -0.072227  -0.001431   0.001096  -0.000661
     3  H    0.307474  -0.072227   0.621135   0.000486  -0.002362  -0.001628
     4  H    0.000844  -0.001431   0.000486   0.599675  -0.000341   0.000126
     5  O   -0.011723   0.001096  -0.002362  -0.000341   7.606370   0.325025
     6  H   -0.000224  -0.000661  -0.001628   0.000126   0.325025   0.610344
     7  H    0.001750  -0.000657   0.003142   0.000042   0.334994  -0.089720
     8  O   -0.033247   0.003563  -0.000857  -0.001138   0.001262  -0.000432
     9  O   -0.030085   0.003661  -0.000353   0.365629   0.002199  -0.000080
    10  H    0.006767   0.001546   0.000933  -0.001122  -0.000444  -0.000449
    11  H    0.001632   0.000156  -0.001176   0.000694   0.001213   0.000394
    12  H    0.001136   0.002055  -0.000264  -0.098680   0.000914  -0.000340
    13  O    0.001945   0.000393   0.000210   0.007812  -0.011056   0.004623
    14  H   -0.000477  -0.000246  -0.000459  -0.000407   0.001064   0.006686
    15  H    0.000169  -0.000075  -0.000147  -0.000460  -0.000901  -0.004250
    16  Na   0.002812   0.008844   0.009643  -0.024677  -0.013642   0.001978
               7          8          9         10         11         12
     1  O    0.001750  -0.033247  -0.030085   0.006767   0.001632   0.001136
     2  H   -0.000657   0.003563   0.003661   0.001546   0.000156   0.002055
     3  H    0.003142  -0.000857  -0.000353   0.000933  -0.001176  -0.000264
     4  H    0.000042  -0.001138   0.365629  -0.001122   0.000694  -0.098680
     5  O    0.334994   0.001262   0.002199  -0.000444   0.001213   0.000914
     6  H   -0.089720  -0.000432  -0.000080  -0.000449   0.000394  -0.000340
     7  H    0.612709  -0.001739  -0.000409   0.000183  -0.000491   0.000275
     8  O   -0.001739   7.661820   0.001609   0.363591   0.342979   0.001323
     9  O   -0.000409   0.001609   7.706483   0.001002   0.000269   0.342914
    10  H    0.000183   0.363591   0.001002   0.604707  -0.103674   0.000637
    11  H   -0.000491   0.342979   0.000269  -0.103674   0.588780  -0.000100
    12  H    0.000275   0.001323   0.342914   0.000637  -0.000100   0.589893
    13  O    0.000686  -0.015185  -0.016054  -0.000452   0.003567  -0.000082
    14  H   -0.000469   0.000006   0.000291  -0.000579   0.001125   0.000164
    15  H    0.001057   0.000593   0.003939   0.000483  -0.000614  -0.000446
    16  Na  -0.008697  -0.039304  -0.049876  -0.021374  -0.002875  -0.000717
              13         14         15         16
     1  O    0.001945  -0.000477   0.000169   0.002812
     2  H    0.000393  -0.000246  -0.000075   0.008844
     3  H    0.000210  -0.000459  -0.000147   0.009643
     4  H    0.007812  -0.000407  -0.000460  -0.024677
     5  O   -0.011056   0.001064  -0.000901  -0.013642
     6  H    0.004623   0.006686  -0.004250   0.001978
     7  H    0.000686  -0.000469   0.001057  -0.008697
     8  O   -0.015185   0.000006   0.000593  -0.039304
     9  O   -0.016054   0.000291   0.003939  -0.049876
    10  H   -0.000452  -0.000579   0.000483  -0.021374
    11  H    0.003567   0.001125  -0.000614  -0.002875
    12  H   -0.000082   0.000164  -0.000446  -0.000717
    13  O    7.576432   0.319253   0.343470  -0.021806
    14  H    0.319253   0.625236  -0.093176   0.002064
    15  H    0.343470  -0.093176   0.600095   0.006004
    16  Na  -0.021806   0.002064   0.006004  10.425381
 Mulliken charges:
               1
     1  O   -0.164874
     2  H    0.134811
     3  H    0.136451
     4  H    0.152950
     5  O   -0.233667
     6  H    0.148609
     7  H    0.147345
     8  O   -0.284843
     9  O   -0.331138
    10  H    0.148247
    11  H    0.168122
    12  H    0.161318
    13  O   -0.193755
    14  H    0.139922
    15  H    0.144260
    16  Na   0.726242
 Sum of Mulliken charges =   1.00000
 Mulliken charges with hydrogens summed into heavy atoms:
               1
     1  O    0.106389
     5  O    0.062286
     8  O    0.031526
     9  O   -0.016871
    13  O    0.090427
    16  Na   0.726242
 APT charges:
               1
     1  O   -0.525067
     2  H    0.290251
     3  H    0.272424
     4  H    0.286207
     5  O   -0.525353
     6  H    0.285884
     7  H    0.284094
     8  O   -0.562088
     9  O   -0.550091
    10  H    0.293832
    11  H    0.292999
    12  H    0.296335
    13  O   -0.540447
    14  H    0.281941
    15  H    0.293325
    16  Na   0.825753
 Sum of APT charges =   1.00000
 APT charges with hydrogens summed into heavy atoms:
               1
     1  O    0.037609
     5  O    0.044625
     8  O    0.024743
     9  O    0.032451
    13  O    0.034820
    16  Na   0.825753
 Electronic spatial extent (au):  <R**2>=           1082.9484
 Charge=              1.0000 electrons
 Dipole moment (field-independent basis, Debye):
    X=             -1.0190    Y=             -0.2006    Z=             -1.0767  Tot=              1.4959
 Quadrupole moment (field-independent basis, Debye-Ang):
   XX=            -16.8076   YY=            -24.2540   ZZ=            -17.9165
   XY=             -0.9116   XZ=              1.4389   YZ=              3.3419
 Traceless Quadrupole moment (field-independent basis, Debye-Ang):
   XX=              2.8518   YY=             -4.5946   ZZ=              1.7428
   XY=             -0.9116   XZ=              1.4389   YZ=              3.3419
 Octapole moment (field-independent basis, Debye-Ang**2):
  XXX=            -32.8258  YYY=             24.2494  ZZZ=             23.8897  XYY=             21.3811
  XXY=             -6.0462  XXZ=             -9.9229  XZZ=              2.5281  YZZ=             -5.5942
  YYZ=            -16.4227  XYZ=            -10.8308
 Hexadecapole moment (field-independent basis, Debye-Ang**3):
 XXXX=           -363.8992 YYYY=           -301.6436 ZZZZ=           -183.4704 XXXY=              0.2070
 XXXZ=             -3.8003 YYYX=             16.4167 YYYZ=            -16.2351 ZZZX=             23.7697
 ZZZY=             29.9373 XXYY=           -111.5648 XXZZ=            -89.9665 YYZZ=            -78.6678
 XXYZ=             -4.4907 YYXZ=             -5.8614 ZZXY=            -10.3205
 N-N= 3.121688349714D+02 E-N=-1.907440201112D+03  KE= 5.415668128558D+02
  Exact polarizability:  46.642  -0.945  45.614   0.042   0.267  45.322
 Approx polarizability:  55.302  -1.364  54.564   0.192   0.222  56.564
 Calling FoFJK, ICntrl=    100127 FMM=F ISym2X=0 I1Cent= 0 IOpClX= 0 NMat=1 NMatS=1 NMatT=0.
 ***** Axes restored to original set *****
 -------------------------------------------------------------------
 Center     Atomic                   Forces (Hartrees/Bohr)
 Number     Number              X              Y              Z
 -------------------------------------------------------------------
      1        8           0.009159360    0.004976239    0.001293324
      2        1          -0.010366798   -0.000668388    0.002479086
      3        1          -0.002153204   -0.010245220   -0.007385899
      4        1           0.004525604    0.005359717    0.006939692
      5        8          -0.000781221   -0.002958606    0.006820923
      6        1           0.000638786    0.009343244   -0.006567997
      7        1          -0.002357574   -0.006023555   -0.011705650
      8        8          -0.004862420    0.005576603   -0.005108518
      9        8           0.001975521    0.000695618   -0.006267515
     10        1          -0.003368438   -0.008674737    0.002333658
     11        1           0.008103228    0.003649206    0.002114609
     12        1          -0.007321660   -0.002423243    0.004434411
     13        8          -0.003244095   -0.011354301    0.001832168
     14        1           0.008945431    0.003825125   -0.006809950
     15        1          -0.003910837    0.010337208    0.003653943
     16       11           0.005018318   -0.001414912    0.011943716
 -------------------------------------------------------------------
 Cartesian Forces:  Max     0.011943716 RMS     0.006157349

 GradGradGradGradGradGradGradGradGradGradGradGradGradGradGradGradGradGrad
 Berny optimization.
 Search for a local minimum.
 Step number   1 out of a maximum of  500
 All quantities printed in internal units (Hartrees-Bohrs-Radians)
 Second derivative matrix not updated -- analytic derivatives used.
 ITU=  0
     Eigenvalues ---   -0.00752  -0.00698  -0.00652  -0.00584  -0.00457
     Eigenvalues ---   -0.00451  -0.00389  -0.00346  -0.00288  -0.00228
     Eigenvalues ---   -0.00218  -0.00162  -0.00100  -0.00061   0.00046
     Eigenvalues ---    0.00080   0.00252   0.00368   0.00480   0.00670
     Eigenvalues ---    0.00841   0.00871   0.01144   0.01739   0.04286
     Eigenvalues ---    0.05123   0.07081   0.15267   0.15474   0.15740
     Eigenvalues ---    0.16366   0.16475   0.86036   0.88473   0.90882
     Eigenvalues ---    0.96658   0.97370   1.06925   1.16324   1.18162
     Eigenvalues ---    1.21717   1.27405
 RFO step:  Lambda=-1.81344842D-02 EMin=-7.52465476D-03
 Linear search not attempted -- first point.
 Maximum step size (   0.100) exceeded in Quadratic search.
    -- Step size scaled by   0.113
 B after Tr=    -0.000364   -0.001532    0.000638
         Rot=    1.000000    0.000159   -0.000018   -0.000226 Ang=   0.03 deg.
 Variable       Old X    -DE/DX   Delta X   Delta X   Delta X     New X
                                 (Linear)    (Quad)   (Total)
    X1       -2.16185   0.00916   0.00000  -0.00491  -0.00354  -2.16539
    Y1       -3.79646   0.00498   0.00000   0.01272   0.01040  -3.78606
    Z1        0.63342   0.00129   0.00000  -0.01596  -0.01403   0.61939
    X2       -3.90606  -0.01037   0.00000  -0.01113  -0.00995  -3.91601
    Y2       -3.34669  -0.00067   0.00000  -0.00825  -0.01130  -3.35798
    Z2        0.79952   0.00248   0.00000  -0.00620  -0.00435   0.79518
    X3       -2.01823  -0.00215   0.00000  -0.01257  -0.01096  -2.02919
    Y3       -4.44084  -0.01025   0.00000  -0.02100  -0.02378  -4.46462
    Z3       -1.05033  -0.00739   0.00000  -0.00520  -0.00306  -1.05339
    X4       -1.14328   0.00453   0.00000  -0.00445  -0.00577  -1.14905
    Y4        2.44483   0.00536   0.00000   0.02350   0.02285   2.46769
    Z4        4.38010   0.00694   0.00000   0.01107   0.01097   4.39107
    X5       -1.90021  -0.00078   0.00000   0.01955   0.01861  -1.88161
    Y5        1.01903  -0.00296   0.00000  -0.01965  -0.02318   0.99585
    Z5       -3.61828   0.00682   0.00000   0.00321   0.00360  -3.61468
    X6       -0.87787   0.00064   0.00000  -0.01780  -0.01939  -0.89726
    Y6        2.37756   0.00934   0.00000   0.00892   0.00563   2.38319
    Z6       -4.23641  -0.00657   0.00000  -0.00013  -0.00022  -4.23662
    X7       -1.53739  -0.00236   0.00000  -0.00356  -0.00393  -1.54132
    Y7       -0.36215  -0.00602   0.00000   0.00655   0.00280  -0.35935
    Z7       -4.72774  -0.01171   0.00000  -0.03862  -0.03782  -4.76555
    X8        3.38363  -0.00486   0.00000   0.00419   0.00497   3.38860
    Y8       -2.42261   0.00558   0.00000  -0.00314  -0.00269  -2.42530
    Z8        1.45481  -0.00511   0.00000  -0.00652  -0.00523   1.44957
    X9       -2.25255   0.00198   0.00000   0.00448   0.00355  -2.24901
    Y9        1.52550   0.00070   0.00000   0.00578   0.00428   1.52978
    Z9        3.28597  -0.00627   0.00000   0.01460   0.01483   3.30080
   X10        3.11812  -0.00337   0.00000  -0.00398  -0.00239   3.11573
   Y10       -4.15738  -0.00867   0.00000  -0.00131  -0.00083  -4.15821
   Z10        1.89320   0.00233   0.00000   0.00294   0.00479   1.89799
   X11        4.97950   0.00810   0.00000   0.00367   0.00429   4.98380
   Y11       -2.00687   0.00365   0.00000  -0.00129   0.00013  -2.00674
   Z11        2.19747   0.00211   0.00000  -0.00261  -0.00151   2.19596
   X12       -3.60371  -0.00732   0.00000   0.00744   0.00679  -3.59692
   Y12        0.98578  -0.00242   0.00000  -0.00340  -0.00516   0.98061
   Z12        4.35931   0.00443   0.00000   0.01639   0.01685   4.37616
   X13        2.32247  -0.00324   0.00000  -0.03347  -0.03556   2.28691
   Y13        3.82105  -0.01135   0.00000  -0.00531  -0.00586   3.81518
   Z13       -0.16469   0.00183   0.00000  -0.01359  -0.01425  -0.17894
   X14        2.97254   0.00895   0.00000   0.04325   0.04099   3.01353
   Y14        4.02891   0.00383   0.00000   0.01269   0.01194   4.04086
   Z14       -1.83899  -0.00681   0.00000   0.01712   0.01636  -1.82263
   X15        1.43243  -0.00391   0.00000   0.01009   0.00731   1.43974
   Y15        5.35739   0.01034   0.00000   0.01987   0.01904   5.37643
   Z15        0.17168   0.00365   0.00000  -0.00512  -0.00625   0.16543
   X16        0.00000   0.00502   0.00000   0.00535   0.00499   0.00499
   Y16        0.00000  -0.00141   0.00000  -0.00275  -0.00427  -0.00427
   Z16       -0.00000   0.01194   0.00000   0.01869   0.01933   0.01933
         Item               Value     Threshold  Converged?
 Maximum Force            0.011944     0.000450     NO 
 RMS     Force            0.006157     0.000300     NO 
 Maximum Displacement     0.040992     0.001800     NO 
 RMS     Displacement     0.014342     0.001200     NO 
 Predicted change in Energy=-1.950597D-03
 GradGradGradGradGradGradGradGradGradGradGradGradGradGradGradGradGradGrad

                          Input orientation:                          
 ---------------------------------------------------------------------
 Center     Atomic      Atomic             Coordinates (Angstroms)
 Number     Number       Type             X           Y           Z
 ---------------------------------------------------------------------
      1          8           0       -1.145872   -2.003495    0.327765
      2          1           0       -2.072264   -1.776968    0.420790
      3          1           0       -1.073799   -2.362576   -0.557430
      4          1           0       -0.608053    1.305844    2.323653
      5          8           0       -0.995704    0.526983   -1.912806
      6          1           0       -0.474812    1.261130   -2.241925
      7          1           0       -0.815632   -0.190160   -2.521821
      8          8           0        1.793172   -1.283411    0.767080
      9          8           0       -1.190122    0.809527    1.746707
     10          1           0        1.648773   -2.200430    1.004374
     11          1           0        2.637312   -1.061924    1.162050
     12          1           0       -1.903407    0.518917    2.315765
     13          8           0        1.210181    2.018907   -0.094693
     14          1           0        1.594692    2.138329   -0.964493
     15          1           0        0.761877    2.845085    0.087544
     16         11           0        0.002640   -0.002260    0.010231
 ---------------------------------------------------------------------
                    Distance matrix (angstroms):
                    1          2          3          4          5
     1  O    0.000000
     2  H    0.958212   0.000000
     3  H    0.957968   1.515514   0.000000
     4  H    3.901864   3.907497   4.687735   0.000000
     5  O    3.383198   3.451500   3.192600   4.324868   0.000000
     6  H    4.208492   4.344186   4.040736   4.567741   0.958446
     7  H    3.393727   3.571561   2.940217   5.075405   0.957924
     8  O    3.057695   3.912175   3.337431   3.859151   4.270497
     9  O    3.150944   3.037464   3.922347   0.958124   3.675549
    10  H    2.882122   3.790252   3.142916   4.373525   4.789779
    11  H    3.986862   4.820877   4.291928   4.181870   5.017785
    12  H    3.299783   2.981700   4.152891   1.515671   4.324905
    13  O    4.680724   5.044684   4.962668   3.108509   3.224484
    14  H    5.131796   5.540319   5.248304   4.044382   3.194665
    15  H    5.215932   5.432016   5.559265   3.040750   3.530452
    16  Na   2.329131   2.761046   2.655569   2.726904   2.230440
                    6          7          8          9         10
     6  H    0.000000
     7  H    1.516820   0.000000
     8  O    4.546708   4.337964   0.000000
     9  O    4.077352   4.399994   3.773606   0.000000
    10  H    5.199084   4.748530   0.958167   4.203597   0.000000
    11  H    5.164198   5.123836   0.957930   4.300395   1.516004
    12  H    4.833664   5.008821   4.394487   0.957631   4.661822
    13  O    2.832672   3.856792   3.462345   3.258037   4.382136
    14  H    2.585374   3.695510   3.840058   4.107495   4.764892
    15  H    3.076482   4.302329   4.309271   3.272098   5.204267
    16  Na   2.626085   2.667614   2.328126   2.257660   2.920621
                   11         12         13         14         15
    11  H    0.000000
    12  H    4.944517   0.000000
    13  O    3.620445   4.213634   0.000000
    14  H    3.981314   5.061550   0.958469   0.000000
    15  H    4.465035   4.180882   0.957474   1.516531   0.000000
    16  Na   3.064485   3.036467   2.356752   2.840218   2.947846
                   16
    16  Na   0.000000
 Stoichiometry    H10NaO5(1+)
 Framework group  C1[X(H10NaO5)]
 Deg. of freedom    42
 Full point group                 C1      NOp   1
 Largest Abelian subgroup         C1      NOp   1
 Largest concise Abelian subgroup C1      NOp   1
                         Standard orientation:                         
 ---------------------------------------------------------------------
 Center     Atomic      Atomic             Coordinates (Angstroms)
 Number     Number       Type             X           Y           Z
 ---------------------------------------------------------------------
      1          8           0        2.190398   -0.725145   -0.048939
      2          1           0        2.231983   -1.440197    0.587569
      3          1           0        2.242077   -1.158815   -0.901560
      4          1           0       -0.404686    0.749622    2.464057
      5          8           0       -0.849045   -1.957054   -0.879733
      6          1           0       -1.750646   -1.739622   -1.121513
      7          1           0       -0.410565   -2.133516   -1.712930
      8          8           0        0.947035    1.916609   -0.957060
      9          8           0        0.022964   -0.041512    2.133564
     10          1           0        1.899612    1.961860   -1.049974
     11          1           0        0.656151    2.827979   -1.006260
     12          1           0        0.632322   -0.294221    2.827739
     13          8           0       -2.219629    0.843535   -0.057846
     14          1           0       -2.680831    0.660281   -0.877830
     15          1           0       -2.820884    0.553208    0.628419
     16         11           0       -0.029847   -0.025276   -0.123420
 ---------------------------------------------------------------------
 Rotational constants (GHZ):           1.7582953           1.4961527           1.3333149
 Standard basis: Aug-CC-pVDZ (5D, 7F)
 There are   244 symmetry adapted cartesian basis functions of A   symmetry.
 There are   232 symmetry adapted basis functions of A   symmetry.
   232 basis functions,   406 primitive gaussians,   244 cartesian basis functions
    30 alpha electrons       30 beta electrons
       nuclear repulsion energy       312.2888591200 Hartrees.
 NAtoms=   16 NActive=   16 NUniq=   16 SFac= 1.00D+00 NAtFMM=   60 NAOKFM=F Big=F
 Integral buffers will be    131072 words long.
 Raffenetti 2 integral format.
 Two-electron integral symmetry is turned on.
 Nuclear repulsion after empirical dispersion term =      312.2807988730 Hartrees.
 One-electron integrals computed using PRISM.
 NBasis=   232 RedAO= T EigKep=  2.87D-04  NBF=   232
 NBsUse=   232 1.00D-06 EigRej= -1.00D+00 NBFU=   232
 Initial guess from the checkpoint file:  "sim007_type3_coord-5_5-0-0_10C_b1_id81786_step4900.chk"
 B after Tr=    -0.000000   -0.000000    0.000000
         Rot=    0.999990    0.004185    0.001527   -0.000214 Ang=   0.51 deg.
 ExpMin= 6.16D-03 ExpMax= 3.17D+04 ExpMxC= 1.08D+03 IAcc=3 IRadAn=         5 AccDes= 0.00D+00
 Harris functional with IExCor=  402 and IRadAn=       5 diagonalized for initial guess.
 HarFok:  IExCor=  402 AccDes= 0.00D+00 IRadAn=         5 IDoV= 1 UseB2=F ITyADJ=14
 ICtDFT=  3500011 ScaDFX=  1.000000  1.000000  1.000000  1.000000
 FoFCou: FMM=F IPFlag=           0 FMFlag=      100000 FMFlg1=           0
         NFxFlg=           0 DoJE=T BraDBF=F KetDBF=T FulRan=T
         wScrn=  0.000000 ICntrl=       500 IOpCl=  0 I1Cent=   200000004 NGrid=           0
         NMat0=    1 NMatS0=      1 NMatT0=    0 NMatD0=    1 NMtDS0=    0 NMtDT0=    0
 Petite list used in FoFCou.
 Requested convergence on RMS density matrix=1.00D-08 within 500 cycles.
 Requested convergence on MAX density matrix=1.00D-06.
 Requested convergence on             energy=1.00D-06.
 No special actions if energy rises.
 SCF Done:  E(RB3LYP) =  -544.442455473     A.U. after    8 cycles
            NFock=  8  Conv=0.82D-08     -V/T= 2.0053
 DoSCS=F DFT=T ScalE2(SS,OS)=  1.000000  1.000000
 Range of M.O.s used for correlation:     1   232
 NBasis=   232 NAE=    30 NBE=    30 NFC=     0 NFV=     0
 NROrb=    232 NOA=    30 NOB=    30 NVA=   202 NVB=   202

 **** Warning!!: The largest alpha MO coefficient is  0.15236565D+02

 Symmetrizing basis deriv contribution to polar:
 IMax=3 JMax=2 DiffMx= 0.00D+00
 G2DrvN: will do    17 centers at a time, making    1 passes.
 Calling FoFCou, ICntrl=  3107 FMM=F I1Cent=   0 AccDes= 1.00D-11.
 End of G2Drv F.D. properties file   721 does not exist.
 End of G2Drv F.D. properties file   722 does not exist.
 End of G2Drv F.D. properties file   788 does not exist.
          IDoAtm=1111111111111111
          Differentiating once with respect to electric field.
                with respect to dipole field.
          Differentiating once with respect to nuclear coordinates.
 Keep R1 ints in memory in canonical form, NReq=408195318.
          There are    51 degrees of freedom in the 1st order CPHF.  IDoFFX=6 NUNeed=     3.
     48 vectors produced by pass  0 Test12= 1.19D-14 1.96D-09 XBig12= 2.19D+01 1.13D+00.
 AX will form    48 AO Fock derivatives at one time.
     48 vectors produced by pass  1 Test12= 1.19D-14 1.96D-09 XBig12= 1.90D+00 3.11D-01.
     48 vectors produced by pass  2 Test12= 1.19D-14 1.96D-09 XBig12= 3.18D-02 2.66D-02.
     48 vectors produced by pass  3 Test12= 1.19D-14 1.96D-09 XBig12= 6.38D-05 1.15D-03.
     48 vectors produced by pass  4 Test12= 1.19D-14 1.96D-09 XBig12= 7.89D-08 3.29D-05.
     23 vectors produced by pass  5 Test12= 1.19D-14 1.96D-09 XBig12= 6.53D-11 9.05D-07.
      3 vectors produced by pass  6 Test12= 1.19D-14 1.96D-09 XBig12= 4.16D-14 2.37D-08.
 InvSVY:  IOpt=1 It=  1 EMax= 2.66D-15
 Solved reduced A of dimension   266 with    51 vectors.
 Isotropic polarizability for W=    0.000000       45.91 Bohr**3.
 End of Minotr F.D. properties file   721 does not exist.
 End of Minotr F.D. properties file   722 does not exist.
 End of Minotr F.D. properties file   788 does not exist.
 Calling FoFJK, ICntrl=    100127 FMM=F ISym2X=0 I1Cent= 0 IOpClX= 0 NMat=1 NMatS=1 NMatT=0.
 ***** Axes restored to original set *****
 -------------------------------------------------------------------
 Center     Atomic                   Forces (Hartrees/Bohr)
 Number     Number              X              Y              Z
 -------------------------------------------------------------------
      1        8           0.008080806    0.004558816    0.000716743
      2        1          -0.009247527   -0.000911787    0.002278734
      3        1          -0.002151663   -0.009596098   -0.006380985
      4        1           0.003840730    0.004982066    0.006428371
      5        8          -0.000057510   -0.002985038    0.005688672
      6        1           0.000047274    0.008254732   -0.005833184
      7        1          -0.002411993   -0.004912965   -0.010725389
      8        8          -0.004231601    0.004906439   -0.004511196
      9        8           0.001836044    0.000737986   -0.005326897
     10        1          -0.003040141   -0.007694242    0.002158999
     11        1           0.007298865    0.003205161    0.001821761
     12        1          -0.006528620   -0.002143935    0.003997910
     13        8          -0.003046037   -0.009598608    0.000425117
     14        1           0.008146028    0.003421488   -0.004911282
     15        1          -0.003149929    0.009095289    0.003257514
     16       11           0.004615274   -0.001319304    0.010915111
 -------------------------------------------------------------------
 Cartesian Forces:  Max     0.010915111 RMS     0.005461815

 GradGradGradGradGradGradGradGradGradGradGradGradGradGradGradGradGradGrad
 Berny optimization.
 Search for a local minimum.
 Step number   2 out of a maximum of  500
 All quantities printed in internal units (Hartrees-Bohrs-Radians)
 Second derivative matrix not updated -- analytic derivatives used.
 DE= -1.95D-03 DEPred=-1.95D-03 R= 9.98D-01
 TightC=F SS=  1.41D+00  RLast= 9.94D-02 DXNew= 1.6818D-01 2.9809D-01
 Trust test= 9.98D-01 RLast= 9.94D-02 DXMaxT set to 1.68D-01
 ITU=  1  0
 Linear search step of   0.199 exceeds DXMaxT=   0.168 but not scaled.
 Quartic linear search produced a step of  2.00000.
 B after Tr=    -0.000000   -0.000000   -0.000000
         Rot=    1.000000   -0.000000   -0.000000   -0.000000 Ang=   0.00 deg.
 Variable       Old X    -DE/DX   Delta X   Delta X   Delta X     New X
                                 (Linear)    (Quad)   (Total)
    X1       -2.16539   0.00808  -0.00708   0.00000  -0.00708  -2.17246
    Y1       -3.78606   0.00456   0.02081   0.00000   0.02081  -3.76525
    Z1        0.61939   0.00072  -0.02806   0.00000  -0.02806   0.59132
    X2       -3.91601  -0.00925  -0.01990   0.00000  -0.01990  -3.93591
    Y2       -3.35798  -0.00091  -0.02260   0.00000  -0.02260  -3.38058
    Z2        0.79518   0.00228  -0.00869   0.00000  -0.00869   0.78649
    X3       -2.02919  -0.00215  -0.02192   0.00000  -0.02192  -2.05110
    Y3       -4.46462  -0.00960  -0.04757   0.00000  -0.04757  -4.51219
    Z3       -1.05339  -0.00638  -0.00612   0.00000  -0.00612  -1.05951
    X4       -1.14905   0.00384  -0.01154   0.00000  -0.01154  -1.16059
    Y4        2.46769   0.00498   0.04571   0.00000   0.04571   2.51340
    Z4        4.39107   0.00643   0.02193   0.00000   0.02193   4.41300
    X5       -1.88161  -0.00006   0.03721   0.00000   0.03721  -1.84440
    Y5        0.99585  -0.00299  -0.04636   0.00000  -0.04636   0.94949
    Z5       -3.61468   0.00569   0.00719   0.00000   0.00719  -3.60749
    X6       -0.89726   0.00005  -0.03878   0.00000  -0.03878  -0.93605
    Y6        2.38319   0.00825   0.01126   0.00000   0.01126   2.39445
    Z6       -4.23662  -0.00583  -0.00044   0.00000  -0.00044  -4.23706
    X7       -1.54132  -0.00241  -0.00787   0.00000  -0.00787  -1.54919
    Y7       -0.35935  -0.00491   0.00559   0.00000   0.00559  -0.35376
    Z7       -4.76555  -0.01073  -0.07563   0.00000  -0.07563  -4.84118
    X8        3.38860  -0.00423   0.00995   0.00000   0.00995   3.39855
    Y8       -2.42530   0.00491  -0.00537   0.00000  -0.00537  -2.43067
    Z8        1.44957  -0.00451  -0.01047   0.00000  -0.01047   1.43910
    X9       -2.24901   0.00184   0.00710   0.00000   0.00710  -2.24191
    Y9        1.52978   0.00074   0.00857   0.00000   0.00857   1.53835
    Z9        3.30080  -0.00533   0.02966   0.00000   0.02966   3.33045
   X10        3.11573  -0.00304  -0.00479   0.00000  -0.00479   3.11094
   Y10       -4.15821  -0.00769  -0.00166   0.00000  -0.00166  -4.15987
   Z10        1.89799   0.00216   0.00958   0.00000   0.00958   1.90757
   X11        4.98380   0.00730   0.00859   0.00000   0.00859   4.99238
   Y11       -2.00674   0.00321   0.00025   0.00000   0.00025  -2.00649
   Z11        2.19596   0.00182  -0.00302   0.00000  -0.00302   2.19293
   X12       -3.59692  -0.00653   0.01358   0.00000   0.01358  -3.58334
   Y12        0.98061  -0.00214  -0.01033   0.00000  -0.01033   0.97028
   Z12        4.37616   0.00400   0.03369   0.00000   0.03369   4.40986
   X13        2.28691  -0.00305  -0.07113   0.00000  -0.07113   2.21578
   Y13        3.81518  -0.00960  -0.01173   0.00000  -0.01173   3.80345
   Z13       -0.17894   0.00043  -0.02851   0.00000  -0.02851  -0.20745
   X14        3.01353   0.00815   0.08198   0.00000   0.08198   3.09551
   Y14        4.04086   0.00342   0.02388   0.00000   0.02388   4.06474
   Z14       -1.82263  -0.00491   0.03272   0.00000   0.03272  -1.78991
   X15        1.43974  -0.00315   0.01462   0.00000   0.01462   1.45436
   Y15        5.37643   0.00910   0.03808   0.00000   0.03808   5.41451
   Z15        0.16543   0.00326  -0.01250   0.00000  -0.01250   0.15294
   X16        0.00499   0.00462   0.00998   0.00000   0.00998   0.01497
   Y16       -0.00427  -0.00132  -0.00854   0.00000  -0.00854  -0.01281
   Z16        0.01933   0.01092   0.03867   0.00000   0.03867   0.05800
         Item               Value     Threshold  Converged?
 Maximum Force            0.010915     0.000450     NO 
 RMS     Force            0.005462     0.000300     NO 
 Maximum Displacement     0.081984     0.001800     NO 
 RMS     Displacement     0.028684     0.001200     NO 
 Predicted change in Energy=-3.592030D-03
 GradGradGradGradGradGradGradGradGradGradGradGradGradGradGradGradGradGrad

                          Input orientation:                          
 ---------------------------------------------------------------------
 Center     Atomic      Atomic             Coordinates (Angstroms)
 Number     Number       Type             X           Y           Z
 ---------------------------------------------------------------------
      1          8           0       -1.149617   -1.992485    0.312915
      2          1           0       -2.082793   -1.788925    0.416191
      3          1           0       -1.085397   -2.387747   -0.560669
      4          1           0       -0.614160    1.330032    2.335258
      5          8           0       -0.976012    0.502450   -1.908999
      6          1           0       -0.495336    1.267090   -2.242156
      7          1           0       -0.819797   -0.187199   -2.561843
      8          8           0        1.798436   -1.286253    0.761540
      9          8           0       -1.186367    0.814060    1.762400
     10          1           0        1.646240   -2.201311    1.009442
     11          1           0        2.641855   -1.061791    1.160450
     12          1           0       -1.896222    0.513452    2.333596
     13          8           0        1.172542    2.012701   -0.109779
     14          1           0        1.638076    2.150968   -0.947179
     15          1           0        0.769612    2.865236    0.080931
     16         11           0        0.007920   -0.006780    0.030692
 ---------------------------------------------------------------------
                    Distance matrix (angstroms):
                    1          2          3          4          5
     1  O    0.000000
     2  H    0.960687   0.000000
     3  H    0.960991   1.519093   0.000000
     4  H    3.926285   3.945580   4.736068   0.000000
     5  O    3.345406   3.447009   3.191112   4.339303   0.000000
     6  H    4.193006   4.350408   4.066128   4.579389   0.962661
     7  H    3.410582   3.609622   2.986243   5.130875   0.962406
     8  O    3.064482   3.928853   3.358276   3.891292   4.246033
     9  O    3.158964   3.064538   3.957071   0.960112   3.690599
    10  H    2.888871   3.798380   3.156239   4.397451   4.764853
    11  H    3.994968   4.837865   4.314257   4.207448   4.995730
    12  H    3.304586   3.002031   4.177459   1.520029   4.341257
    13  O    4.648937   5.032516   4.966440   3.104279   3.183447
    14  H    5.150464   5.588059   5.307224   4.064591   3.236690
    15  H    5.228262   5.468989   5.607721   3.058377   3.548208
    16  Na   2.315722   2.774118   2.685899   2.735887   2.233795
                    6          7          8          9         10
     6  H    0.000000
     7  H    1.523952   0.000000
     8  O    4.561046   4.371263   0.000000
     9  O    4.088915   4.453759   3.784453   0.000000
    10  H    5.214311   4.784565   0.960182   4.205124   0.000000
    11  H    5.181059   5.157849   0.959618   4.305397   1.520710
    12  H    4.844373   5.061119   4.400090   0.959439   4.655358
    13  O    2.807986   3.849883   3.469011   3.241334   4.385766
    14  H    2.647575   3.757034   3.841865   4.136015   4.771872
    15  H    3.090453   4.339106   4.330886   3.295530   5.224989
    16  Na   2.653648   2.727436   2.318865   2.258077   2.908265
                   11         12         13         14         15
    11  H    0.000000
    12  H    4.944876   0.000000
    13  O    3.636600   4.199421   0.000000
    14  H    3.971334   5.092760   0.968029   0.000000
    15  H    4.482432   4.208570   0.962049   1.523620   0.000000
    16  Na   3.054015   3.033111   2.335462   2.875677   2.971730
                   16
    16  Na   0.000000
 Stoichiometry    H10NaO5(1+)
 Framework group  C1[X(H10NaO5)]
 Deg. of freedom    42
 Full point group                 C1      NOp   1
 Largest Abelian subgroup         C1      NOp   1
 Largest concise Abelian subgroup C1      NOp   1
                         Standard orientation:                         
 ---------------------------------------------------------------------
 Center     Atomic      Atomic             Coordinates (Angstroms)
 Number     Number       Type             X           Y           Z
 ---------------------------------------------------------------------
      1          8           0        2.172964   -0.740706   -0.026254
      2          1           0        2.235544   -1.442170    0.627162
      3          1           0        2.268328   -1.189832   -0.870468
      4          1           0       -0.440215    0.799029    2.466981
      5          8           0       -0.829744   -1.954753   -0.863859
      6          1           0       -1.749443   -1.776843   -1.085708
      7          1           0       -0.418832   -2.193570   -1.700724
      8          8           0        0.951928    1.897097   -0.996880
      9          8           0        0.005667    0.011955    2.145239
     10          1           0        1.908262    1.939341   -1.071651
     11          1           0        0.661002    2.809280   -1.061309
     12          1           0        0.619379   -0.223470    2.844135
     13          8           0       -2.211165    0.804886   -0.082577
     14          1           0       -2.694522    0.690300   -0.913429
     15          1           0       -2.849793    0.569868    0.597466
     16         11           0       -0.023355   -0.011797   -0.112527
 ---------------------------------------------------------------------
 Rotational constants (GHZ):           1.7577644           1.4963644           1.3453939
 Standard basis: Aug-CC-pVDZ (5D, 7F)
 There are   244 symmetry adapted cartesian basis functions of A   symmetry.
 There are   232 symmetry adapted basis functions of A   symmetry.
   232 basis functions,   406 primitive gaussians,   244 cartesian basis functions
    30 alpha electrons       30 beta electrons
       nuclear repulsion energy       312.4333779640 Hartrees.
 NAtoms=   16 NActive=   16 NUniq=   16 SFac= 1.00D+00 NAtFMM=   60 NAOKFM=F Big=F
 Integral buffers will be    131072 words long.
 Raffenetti 2 integral format.
 Two-electron integral symmetry is turned on.
 Nuclear repulsion after empirical dispersion term =      312.4253623396 Hartrees.
 One-electron integrals computed using PRISM.
 NBasis=   232 RedAO= T EigKep=  2.81D-04  NBF=   232
 NBsUse=   232 1.00D-06 EigRej= -1.00D+00 NBFU=   232
 Initial guess from the checkpoint file:  "sim007_type3_coord-5_5-0-0_10C_b1_id81786_step4900.chk"
 B after Tr=     0.000000    0.000000   -0.000000
         Rot=    0.999950    0.009448    0.003198   -0.000497 Ang=   1.14 deg.
 ExpMin= 6.16D-03 ExpMax= 3.17D+04 ExpMxC= 1.08D+03 IAcc=3 IRadAn=         5 AccDes= 0.00D+00
 Harris functional with IExCor=  402 and IRadAn=       5 diagonalized for initial guess.
 HarFok:  IExCor=  402 AccDes= 0.00D+00 IRadAn=         5 IDoV= 1 UseB2=F ITyADJ=14
 ICtDFT=  3500011 ScaDFX=  1.000000  1.000000  1.000000  1.000000
 FoFCou: FMM=F IPFlag=           0 FMFlag=      100000 FMFlg1=           0
         NFxFlg=           0 DoJE=T BraDBF=F KetDBF=T FulRan=T
         wScrn=  0.000000 ICntrl=       500 IOpCl=  0 I1Cent=   200000004 NGrid=           0
         NMat0=    1 NMatS0=      1 NMatT0=    0 NMatD0=    1 NMtDS0=    0 NMtDT0=    0
 Petite list used in FoFCou.
 Requested convergence on RMS density matrix=1.00D-08 within 500 cycles.
 Requested convergence on MAX density matrix=1.00D-06.
 Requested convergence on             energy=1.00D-06.
 No special actions if energy rises.
 SCF Done:  E(RB3LYP) =  -544.445948628     A.U. after    9 cycles
            NFock=  9  Conv=0.27D-08     -V/T= 2.0055
 DoSCS=F DFT=T ScalE2(SS,OS)=  1.000000  1.000000
 Range of M.O.s used for correlation:     1   232
 NBasis=   232 NAE=    30 NBE=    30 NFC=     0 NFV=     0
 NROrb=    232 NOA=    30 NOB=    30 NVA=   202 NVB=   202

 **** Warning!!: The largest alpha MO coefficient is  0.12234501D+02

 Symmetrizing basis deriv contribution to polar:
 IMax=3 JMax=2 DiffMx= 0.00D+00
 G2DrvN: will do    17 centers at a time, making    1 passes.
 Calling FoFCou, ICntrl=  3107 FMM=F I1Cent=   0 AccDes= 1.00D-11.
 End of G2Drv F.D. properties file   721 does not exist.
 End of G2Drv F.D. properties file   722 does not exist.
 End of G2Drv F.D. properties file   788 does not exist.
          IDoAtm=1111111111111111
          Differentiating once with respect to electric field.
                with respect to dipole field.
          Differentiating once with respect to nuclear coordinates.
 Keep R1 ints in memory in canonical form, NReq=408195318.
          There are    51 degrees of freedom in the 1st order CPHF.  IDoFFX=6 NUNeed=     3.
     48 vectors produced by pass  0 Test12= 1.19D-14 1.96D-09 XBig12= 2.20D+01 1.07D+00.
 AX will form    48 AO Fock derivatives at one time.
     48 vectors produced by pass  1 Test12= 1.19D-14 1.96D-09 XBig12= 1.84D+00 3.04D-01.
     48 vectors produced by pass  2 Test12= 1.19D-14 1.96D-09 XBig12= 3.28D-02 2.87D-02.
     48 vectors produced by pass  3 Test12= 1.19D-14 1.96D-09 XBig12= 6.90D-05 1.24D-03.
     48 vectors produced by pass  4 Test12= 1.19D-14 1.96D-09 XBig12= 7.65D-08 3.41D-05.
     22 vectors produced by pass  5 Test12= 1.19D-14 1.96D-09 XBig12= 6.54D-11 8.07D-07.
      3 vectors produced by pass  6 Test12= 1.19D-14 1.96D-09 XBig12= 4.31D-14 2.41D-08.
 InvSVY:  IOpt=1 It=  1 EMax= 3.55D-15
 Solved reduced A of dimension   265 with    51 vectors.
 Isotropic polarizability for W=    0.000000       46.11 Bohr**3.
 End of Minotr F.D. properties file   721 does not exist.
 End of Minotr F.D. properties file   722 does not exist.
 End of Minotr F.D. properties file   788 does not exist.
 Calling FoFJK, ICntrl=    100127 FMM=F ISym2X=0 I1Cent= 0 IOpClX= 0 NMat=1 NMatS=1 NMatT=0.
 ***** Axes restored to original set *****
 -------------------------------------------------------------------
 Center     Atomic                   Forces (Hartrees/Bohr)
 Number     Number              X              Y              Z
 -------------------------------------------------------------------
      1        8           0.005349280    0.003111679   -0.001447404
      2        1          -0.006535762   -0.001368467    0.001923516
      3        1          -0.002066322   -0.007751543   -0.003394718
      4        1           0.002249666    0.003949548    0.005207517
      5        8           0.002681133   -0.003054033    0.000677842
      6        1          -0.001968201    0.004634577   -0.003583800
      7        1          -0.002988682   -0.001240126   -0.006876150
      8        8          -0.003005394    0.003466249   -0.003248245
      9        8           0.001731247    0.001015109   -0.003234815
     10        1          -0.002349362   -0.005640642    0.001746643
     11        1           0.005699760    0.002320415    0.001230493
     12        1          -0.004894003   -0.001505151    0.003097299
     13        8           0.000041321   -0.002590439   -0.007259048
     14        1           0.003452130    0.001185902    0.003677293
     15        1          -0.001220531    0.004641729    0.002539347
     16       11           0.003823721   -0.001174810    0.008944230
 -------------------------------------------------------------------
 Cartesian Forces:  Max     0.008944230 RMS     0.003815188

 GradGradGradGradGradGradGradGradGradGradGradGradGradGradGradGradGradGrad
 Berny optimization.
 Search for a local minimum.
 Step number   3 out of a maximum of  500
 All quantities printed in internal units (Hartrees-Bohrs-Radians)
 Second derivative matrix not updated -- analytic derivatives used.
 ITU=  0  1  0
 Linear search step of   0.334 exceeds DXMaxT=   0.168 but not scaled.
 Quintic linear search produced a step of  1.68017.
 B after Tr=     0.000000    0.000000   -0.000000
         Rot=    1.000000   -0.000000    0.000000    0.000000 Ang=   0.00 deg.
 Variable       Old X    -DE/DX   Delta X   Delta X   Delta X     New X
                                 (Linear)    (Quad)   (Total)
    X1       -2.17246   0.00535  -0.01189   0.00000  -0.01189  -2.18435
    Y1       -3.76525   0.00311   0.03496   0.00000   0.03496  -3.73029
    Z1        0.59132  -0.00145  -0.04715   0.00000  -0.04715   0.54417
    X2       -3.93591  -0.00654  -0.03343   0.00000  -0.03343  -3.96934
    Y2       -3.38058  -0.00137  -0.03796   0.00000  -0.03796  -3.41854
    Z2        0.78649   0.00192  -0.01460   0.00000  -0.01460   0.77188
    X3       -2.05110  -0.00207  -0.03682   0.00000  -0.03682  -2.08793
    Y3       -4.51219  -0.00775  -0.07992   0.00000  -0.07992  -4.59211
    Z3       -1.05951  -0.00339  -0.01029   0.00000  -0.01029  -1.06980
    X4       -1.16059   0.00225  -0.01939   0.00000  -0.01939  -1.17998
    Y4        2.51340   0.00395   0.07680   0.00000   0.07680   2.59019
    Z4        4.41300   0.00521   0.03685   0.00000   0.03685   4.44985
    X5       -1.84440   0.00268   0.06252   0.00000   0.06252  -1.78187
    Y5        0.94949  -0.00305  -0.07789   0.00000  -0.07789   0.87160
    Z5       -3.60749   0.00068   0.01209   0.00000   0.01209  -3.59540
    X6       -0.93605  -0.00197  -0.06517   0.00000  -0.06517  -1.00121
    Y6        2.39445   0.00463   0.01892   0.00000   0.01892   2.41337
    Z6       -4.23706  -0.00358  -0.00073   0.00000  -0.00073  -4.23779
    X7       -1.54919  -0.00299  -0.01322   0.00000  -0.01322  -1.56241
    Y7       -0.35376  -0.00124   0.00940   0.00000   0.00940  -0.34436
    Z7       -4.84118  -0.00688  -0.12707   0.00000  -0.12707  -4.96825
    X8        3.39855  -0.00301   0.01671   0.00000   0.01671   3.41527
    Y8       -2.43067   0.00347  -0.00902   0.00000  -0.00902  -2.43969
    Z8        1.43910  -0.00325  -0.01759   0.00000  -0.01759   1.42151
    X9       -2.24191   0.00173   0.01192   0.00000   0.01192  -2.22999
    Y9        1.53835   0.00102   0.01439   0.00000   0.01439   1.55275
    Z9        3.33045  -0.00323   0.04983   0.00000   0.04983   3.38028
   X10        3.11094  -0.00235  -0.00804   0.00000  -0.00804   3.10290
   Y10       -4.15987  -0.00564  -0.00280   0.00000  -0.00280  -4.16267
   Z10        1.90757   0.00175   0.01609   0.00000   0.01609   1.92366
   X11        4.99238   0.00570   0.01442   0.00000   0.01442   5.00681
   Y11       -2.00649   0.00232   0.00042   0.00000   0.00042  -2.00607
   Z11        2.19293   0.00123  -0.00508   0.00000  -0.00508   2.18785
   X12       -3.58334  -0.00489   0.02281   0.00000   0.02281  -3.56053
   Y12        0.97028  -0.00151  -0.01735   0.00000  -0.01735   0.95293
   Z12        4.40986   0.00310   0.05661   0.00000   0.05661   4.46647
   X13        2.21578   0.00004  -0.11950   0.00000  -0.11950   2.09628
   Y13        3.80345  -0.00259  -0.01970   0.00000  -0.01970   3.78375
   Z13       -0.20745  -0.00726  -0.04790   0.00000  -0.04790  -0.25535
   X14        3.09551   0.00345   0.13775   0.00000   0.13775   3.23326
   Y14        4.06474   0.00119   0.04013   0.00000   0.04013   4.10487
   Z14       -1.78991   0.00368   0.05497   0.00000   0.05497  -1.73494
   X15        1.45436  -0.00122   0.02456   0.00000   0.02456   1.47892
   Y15        5.41451   0.00464   0.06398   0.00000   0.06398   5.47849
   Z15        0.15294   0.00254  -0.02100   0.00000  -0.02100   0.13194
   X16        0.01497   0.00382   0.01677   0.00000   0.01677   0.03173
   Y16       -0.01281  -0.00117  -0.01435   0.00000  -0.01435  -0.02716
   Z16        0.05800   0.00894   0.06497   0.00000   0.06497   0.12297
         Item               Value     Threshold  Converged?
 Maximum Force            0.008944     0.000450     NO 
 RMS     Force            0.003815     0.000300     NO 
 Maximum Displacement     0.137747     0.001800     NO 
 RMS     Displacement     0.048194     0.001200     NO 
 Predicted change in Energy=-3.539996D-03
 GradGradGradGradGradGradGradGradGradGradGradGradGradGradGradGradGradGrad

                          Input orientation:                          
 ---------------------------------------------------------------------
 Center     Atomic      Atomic             Coordinates (Angstroms)
 Number     Number       Type             X           Y           Z
 ---------------------------------------------------------------------
      1          8           0       -1.155910   -1.973987    0.287964
      2          1           0       -2.100483   -1.809015    0.408463
      3          1           0       -1.104883   -2.430038   -0.566112
      4          1           0       -0.624420    1.370672    2.354758
      5          8           0       -0.942926    0.461231   -1.902602
      6          1           0       -0.529820    1.277103   -2.242543
      7          1           0       -0.826794   -0.182225   -2.629087
      8          8           0        1.807281   -1.291027    0.752233
      9          8           0       -1.180058    0.821677    1.788767
     10          1           0        1.641983   -2.202790    1.017957
     11          1           0        2.649488   -1.061567    1.157762
     12          1           0       -1.884150    0.504269    2.363554
     13          8           0        1.109303    2.002274   -0.135125
     14          1           0        1.710968    2.172204   -0.918089
     15          1           0        0.782608    2.899093    0.069821
     16         11           0        0.016792   -0.014375    0.065071
 ---------------------------------------------------------------------
                    Distance matrix (angstroms):
                    1          2          3          4          5
     1  O    0.000000
     2  H    0.966413   0.000000
     3  H    0.969553   1.525348   0.000000
     4  H    3.967476   4.009642   4.817440   0.000000
     5  O    3.282411   3.440199   3.189337   4.365048   0.000000
     6  H    4.167137   4.361070   4.109016   4.599226   0.975635
     7  H    3.439173   3.673614   3.063636   5.224094   0.977396
     8  O    3.076114   3.956906   3.393534   3.945365   4.205019
     9  O    3.173127   3.110139   4.015565   0.964611   3.716498
    10  H    2.900594   3.812164   3.179023   4.437708   4.723179
    11  H    4.008754   4.866451   4.351982   4.250537   4.958848
    12  H    3.313632   3.036521   4.219047   1.528937   4.368963
    13  O    4.595742   5.012398   4.973305   3.099070   3.116157
    14  H    5.183093   5.668951   5.406805   4.099759   3.307544
    15  H    5.249033   5.531110   5.689172   3.088161   3.579259
    16  Na   2.294556   2.796695   2.737147   2.751758   2.240312
                    6          7          8          9         10
     6  H    0.000000
     7  H    1.538587   0.000000
     8  O    4.585413   4.427315   0.000000
     9  O    4.108732   4.544233   3.802909   0.000000
    10  H    5.239966   4.845459   0.963973   4.207786   0.000000
    11  H    5.209553   5.215170   0.962506   4.313954   1.528725
    12  H    4.862880   5.149343   4.409774   0.962742   4.644611
    13  O    2.766551   3.839317   3.481438   3.215019   4.392711
    14  H    2.752547   3.861488   3.846196   4.184379   4.784726
    15  H    3.114538   4.401000   4.367236   3.335040   5.259915
    16  Na   2.700330   2.828127   2.303884   2.258885   2.887628
                   11         12         13         14         15
    11  H    0.000000
    12  H    4.945669   0.000000
    13  O    3.664812   4.177101   0.000000
    14  H    3.955660   5.145489   1.001953   0.000000
    15  H    4.511728   4.255349   0.976226   1.538241   0.000000
    16  Na   3.036720   3.027473   2.302289   2.935637   3.012440
                   16
    16  Na   0.000000
 Stoichiometry    H10NaO5(1+)
 Framework group  C1[X(H10NaO5)]
 Deg. of freedom    42
 Full point group                 C1      NOp   1
 Largest Abelian subgroup         C1      NOp   1
 Largest concise Abelian subgroup C1      NOp   1
                         Standard orientation:                         
 ---------------------------------------------------------------------
 Center     Atomic      Atomic             Coordinates (Angstroms)
 Number     Number       Type             X           Y           Z
 ---------------------------------------------------------------------
      1          8           0        2.143700   -0.764841    0.020773
      2          1           0        2.240925   -1.437346    0.707969
      3          1           0        2.313392   -1.246121   -0.803609
      4          1           0       -0.503090    0.902133    2.461381
      5          8           0       -0.795445   -1.957890   -0.823195
      6          1           0       -1.746329   -1.845950   -1.010690
      7          1           0       -0.429913   -2.308215   -1.659234
      8          8           0        0.961011    1.854321   -1.076365
      9          8           0       -0.025837    0.119614    2.160769
     10          1           0        1.923231    1.892991   -1.119739
     11          1           0        0.669835    2.766528   -1.173910
     12          1           0        0.594602   -0.080980    2.869069
     13          8           0       -2.197116    0.737124   -0.128462
     14          1           0       -2.716062    0.729996   -0.985523
     15          1           0       -2.898687    0.599336    0.536240
     16         11           0       -0.012582    0.011000   -0.095465
 ---------------------------------------------------------------------
 Rotational constants (GHZ):           1.7554642           1.4963533           1.3650013
 Standard basis: Aug-CC-pVDZ (5D, 7F)
 There are   244 symmetry adapted cartesian basis functions of A   symmetry.
 There are   232 symmetry adapted basis functions of A   symmetry.
   232 basis functions,   406 primitive gaussians,   244 cartesian basis functions
    30 alpha electrons       30 beta electrons
       nuclear repulsion energy       312.4501008155 Hartrees.
 NAtoms=   16 NActive=   16 NUniq=   16 SFac= 1.00D+00 NAtFMM=   60 NAOKFM=F Big=F
 Integral buffers will be    131072 words long.
 Raffenetti 2 integral format.
 Two-electron integral symmetry is turned on.
 Nuclear repulsion after empirical dispersion term =      312.4421349228 Hartrees.
 One-electron integrals computed using PRISM.
 NBasis=   232 RedAO= T EigKep=  2.67D-04  NBF=   232
 NBsUse=   232 1.00D-06 EigRej= -1.00D+00 NBFU=   232
 Initial guess from the checkpoint file:  "sim007_type3_coord-5_5-0-0_10C_b1_id81786_step4900.chk"
 B after Tr=    -0.000000   -0.000000   -0.000000
         Rot=    0.999787    0.019786    0.005841   -0.001104 Ang=   2.37 deg.
 ExpMin= 6.16D-03 ExpMax= 3.17D+04 ExpMxC= 1.08D+03 IAcc=3 IRadAn=         5 AccDes= 0.00D+00
 Harris functional with IExCor=  402 and IRadAn=       5 diagonalized for initial guess.
 HarFok:  IExCor=  402 AccDes= 0.00D+00 IRadAn=         5 IDoV= 1 UseB2=F ITyADJ=14
 ICtDFT=  3500011 ScaDFX=  1.000000  1.000000  1.000000  1.000000
 FoFCou: FMM=F IPFlag=           0 FMFlag=      100000 FMFlg1=           0
         NFxFlg=           0 DoJE=T BraDBF=F KetDBF=T FulRan=T
         wScrn=  0.000000 ICntrl=       500 IOpCl=  0 I1Cent=   200000004 NGrid=           0
         NMat0=    1 NMatS0=      1 NMatT0=    0 NMatD0=    1 NMtDS0=    0 NMtDT0=    0
 Petite list used in FoFCou.
 Requested convergence on RMS density matrix=1.00D-08 within 500 cycles.
 Requested convergence on MAX density matrix=1.00D-06.
 Requested convergence on             energy=1.00D-06.
 No special actions if energy rises.
 SCF Done:  E(RB3LYP) =  -544.448663254     A.U. after    9 cycles
            NFock=  9  Conv=0.69D-08     -V/T= 2.0058
 DoSCS=F DFT=T ScalE2(SS,OS)=  1.000000  1.000000
 Range of M.O.s used for correlation:     1   232
 NBasis=   232 NAE=    30 NBE=    30 NFC=     0 NFV=     0
 NROrb=    232 NOA=    30 NOB=    30 NVA=   202 NVB=   202

 **** Warning!!: The largest alpha MO coefficient is  0.14305395D+02

 Symmetrizing basis deriv contribution to polar:
 IMax=3 JMax=2 DiffMx= 0.00D+00
 G2DrvN: will do    17 centers at a time, making    1 passes.
 Calling FoFCou, ICntrl=  3107 FMM=F I1Cent=   0 AccDes= 1.00D-11.
 End of G2Drv F.D. properties file   721 does not exist.
 End of G2Drv F.D. properties file   722 does not exist.
 End of G2Drv F.D. properties file   788 does not exist.
          IDoAtm=1111111111111111
          Differentiating once with respect to electric field.
                with respect to dipole field.
          Differentiating once with respect to nuclear coordinates.
 Keep R1 ints in memory in canonical form, NReq=408195318.
          There are    51 degrees of freedom in the 1st order CPHF.  IDoFFX=6 NUNeed=     3.
     48 vectors produced by pass  0 Test12= 1.19D-14 1.96D-09 XBig12= 2.27D+01 1.12D+00.
 AX will form    48 AO Fock derivatives at one time.
     48 vectors produced by pass  1 Test12= 1.19D-14 1.96D-09 XBig12= 1.81D+00 2.50D-01.
     48 vectors produced by pass  2 Test12= 1.19D-14 1.96D-09 XBig12= 3.26D-02 2.64D-02.
     48 vectors produced by pass  3 Test12= 1.19D-14 1.96D-09 XBig12= 7.55D-05 1.17D-03.
     48 vectors produced by pass  4 Test12= 1.19D-14 1.96D-09 XBig12= 7.29D-08 3.58D-05.
     21 vectors produced by pass  5 Test12= 1.19D-14 1.96D-09 XBig12= 6.27D-11 7.88D-07.
      3 vectors produced by pass  6 Test12= 1.19D-14 1.96D-09 XBig12= 4.52D-14 2.37D-08.
 InvSVY:  IOpt=1 It=  1 EMax= 4.44D-15
 Solved reduced A of dimension   264 with    51 vectors.
 Isotropic polarizability for W=    0.000000       46.74 Bohr**3.
 End of Minotr F.D. properties file   721 does not exist.
 End of Minotr F.D. properties file   722 does not exist.
 End of Minotr F.D. properties file   788 does not exist.
 Calling FoFJK, ICntrl=    100127 FMM=F ISym2X=0 I1Cent= 0 IOpClX= 0 NMat=1 NMatS=1 NMatT=0.
 ***** Axes restored to original set *****
 -------------------------------------------------------------------
 Center     Atomic                   Forces (Hartrees/Bohr)
 Number     Number              X              Y              Z
 -------------------------------------------------------------------
      1        8          -0.000955212   -0.001551256   -0.007583400
      2        1          -0.000650719   -0.001883025    0.001393421
      3        1          -0.001593119   -0.002769282    0.004071850
      4        1          -0.000993851    0.001354998    0.002616534
      5        8           0.009076427   -0.001759251   -0.015887091
      6        1          -0.006659797   -0.005694553    0.002324018
      7        1          -0.004485483    0.007757378    0.005342860
      8        8          -0.001062330    0.000771293   -0.000917542
      9        8           0.001999943    0.002082789    0.000856695
     10        1          -0.001080399   -0.001937865    0.000860479
     11        1           0.003046288    0.000847848    0.000217661
     12        1          -0.002024957   -0.000188505    0.001509154
     13        8           0.015901767    0.018974435   -0.027461899
     14        1          -0.014826005   -0.006648939    0.025492589
     15        1           0.001729305   -0.008282368    0.001180678
     16       11           0.002578144   -0.001073697    0.005983994
 -------------------------------------------------------------------
 Cartesian Forces:  Max     0.027461899 RMS     0.007988777

 GradGradGradGradGradGradGradGradGradGradGradGradGradGradGradGradGradGrad
 Berny optimization.
 Search for a local minimum.
 Step number   4 out of a maximum of  500
 All quantities printed in internal units (Hartrees-Bohrs-Radians)
 Second derivative matrix not updated -- analytic derivatives used.
 ITU=  0  0  1  0
     Eigenvalues ---   -0.00166  -0.00106  -0.00048  -0.00014  -0.00005
     Eigenvalues ---    0.00004   0.00026   0.00070   0.00118   0.00174
[...]

 ----------------------------------------------------------------------

 Dipole orientation:
     8         -0.40757080         -1.27839422         -4.13705697
     1         -2.13291752         -1.88397384         -4.08867861
     1         -0.06207636         -0.87898920         -5.88303887
     1         -2.81001928         -3.80972562          0.76793346
     8          0.49183407          4.72671028         -0.52212130
     1          0.82653063          5.60158905          1.04502461
     1          0.44526076          6.00987607         -1.81609455
     8          1.69788291         -3.75397109          0.15245171
     8         -3.56826273         -2.22714918          0.24999970
     1          1.81738134         -4.06860885         -1.64703523
     1          2.91383981         -4.85743686          0.94553881
     1         -5.32161483         -2.31768582          0.74415861
     8          0.90682290          2.02009915          4.31756414
     1          2.50017479          1.89340214          5.20107715
     1         -0.34427298          2.15983227          5.64065339
    11          0.04558710          0.45910177          0.09253692

 Electric dipole moment (dipole orientation):
 (Debye = 10**-18 statcoulomb cm , SI units = C m)
                  (au)            (Debye)         (10**-30 SI)
   Tot        0.347249D+00      0.882620D+00      0.294410D+01
   x          0.000000D+00      0.000000D+00      0.000000D+00
   y          0.000000D+00      0.000000D+00      0.000000D+00
   z          0.347249D+00      0.882620D+00      0.294410D+01

 Dipole polarizability, Alpha (dipole orientation).
 (esu units = cm**3 , SI units = C**2 m**2 J**-1)
 Alpha(0;0):
               (au)            (10**-24 esu)      (10**-40 SI)
   iso        0.473569D+02      0.701757D+01      0.780810D+01
   aniso      0.325717D+01      0.482662D+00      0.537034D+00
   xx         0.465414D+02      0.689673D+01      0.767364D+01
   yx        -0.416375D+00     -0.617003D-01     -0.686509D-01
   yy         0.465123D+02      0.689241D+01      0.766884D+01
   zx         0.239348D+00      0.354677D-01      0.394631D-01
   zy        -0.111283D+01     -0.164904D+00     -0.183481D+00
   zz         0.490171D+02      0.726358D+01      0.808183D+01

 ----------------------------------------------------------------------

 Test job not archived.
 1\1\GINC-N680\Freq\RB3LYP\Aug-CC-pVDZ\H10Na1O5(1+)\HNR2\18-Jul-2022\0\
 \#N Geom=AllCheck Guess=TCheck SCRF=Check Test GenChk RB3LYP/Aug-CC-pV
 DZ Freq\\MD frame sim007_type3_coord-5_5-0-0_10C_b1_id81786_step4900\\
 1,1\O,-0.9929824683,-2.0654425087,0.2117863472\H,-1.6151767302,-1.8662
 433664,0.9260259402\H,-1.3560584298,-2.8295468374,-0.2530485908\H,-0.3
 3869706,0.0358476452,2.5148833495\O,-0.7585282286,0.6808095439,-2.3155
 020122\H,-0.3741253696,1.5141745787,-2.6174604648\H,-1.3327690367,0.37
 77749763,-3.0289208231\O,1.4341525788,-1.0293390582,1.2820645063\O,-1.
 0760862,0.2726646018,1.9338181744\H,1.0870230386,-1.9291087931,1.19035
 02361\H,2.3528368384,-1.1214714179,1.562554627\H,-1.6891096958,0.78728
 08413,2.473192412\O,1.1216772549,2.2158181165,-0.6520110985\H,2.052240
 1393,2.3049409129,-0.8972087799\H,0.8930327124,3.0642045321,-0.2495808
 779\Na,-0.0384493434,0.1311362329,-0.2081529454\\Version=ES64L-G16RevB
 .01\State=1-A\HF=-544.4645767\RMSD=1.635e-09\RMSF=1.699e-06\ZeroPoint=
 0.1205883\Thermal=0.1376229\Dipole=0.1656664,0.2960247,0.0742029\Dipol
 eDeriv=-0.5228728,0.037262,-0.0647912,0.0253839,-0.6169976,0.0089783,-
 0.0830966,-0.0054796,-0.5897392,0.2465942,-0.009784,0.0283016,-0.00000
 19,0.3714084,0.0511608,0.0387675,0.056586,0.3078082,0.2568661,-0.04616
 98,0.0054829,-0.0399101,0.2960073,-0.0155473,0.0089067,-0.0150934,0.31
 94426,0.3586735,-0.0447905,-0.0656555,-0.0360924,0.3244756,0.0186593,-
 0.0537401,0.0110661,0.2517828,-0.598718,0.0028192,-0.0023054,0.0011535
 ,-0.5580192,-0.0473169,-0.0015432,-0.0437394,-0.5563645,0.3347568,0.01
 38648,0.0356379,0.0148447,0.2746332,0.0669943,0.0346046,0.0638683,0.29
 47103,0.3150268,-0.0070396,-0.0336043,-0.0080329,0.3119465,0.0162533,-
 0.0315075,0.0183705,0.2555456,-0.6257014,-0.0192142,0.0086645,-0.04980
 65,-0.4924993,-0.0108803,0.0083344,-0.0053178,-0.6352755,-0.5924374,-0
 .0083819,0.0706438,-0.0171729,-0.6432713,0.0094613,0.0506821,0.0228638
 ,-0.4973143,0.4062251,0.0370623,0.0473147,0.0519227,0.2356503,0.023833
 8,0.0503424,0.024376,0.3122256,0.2693093,0.0328263,-0.0162964,0.036880
 8,0.2714425,0.003194,-0.0144596,0.0019511,0.3288764,0.3130182,0.012387
 1,-0.0032436,0.014156,0.3127761,-0.0351201,0.0009882,-0.0363365,0.2480
 076,-0.5063294,0.0112479,-0.0240996,0.013458,-0.5241481,0.057846,-0.02
 61707,0.0566986,-0.6177165,0.262129,-0.0343673,0.0010615,-0.0326825,0.
 2767976,-0.0174396,0.0054621,-0.0173956,0.3241034,0.2861129,-0.0216119
 ,-0.0011785,-0.0254318,0.2572864,-0.0306354,-0.0040613,-0.0295223,0.32
 04069,0.7973471,0.0438898,0.0140675,0.0513314,0.9025116,-0.0994415,0.0
 164909,-0.102896,0.9335005\Polar=47.8697094,1.0607034,47.5498372,0.985
 2375,1.0205431,46.6512304\Quadrupole=-2.9372086,2.4260783,0.5111303,4.
 2139418,0.9703695,-3.4144216\PG=C01 [X(H10Na1O5)]\NImag=0\\0.34461935,
 0.11924933,0.39093886,-0.15883939,0.27664761,0.42231579,-0.23161174,0.
 05984443,0.24858632,0.22545943,0.02792786,-0.04938087,-0.06695807,-0.0
 5208756,0.05535643,0.21546609,-0.09338818,-0.27803286,-0.23416891,0.09
 195524,0.29408015,-0.10597065,-0.17388788,-0.08856443,0.00924488,0.024
 92415,0.01724519,0.09694982,-0.14012911,-0.32658662,-0.20526096,-0.008
 58746,-0.00755677,-0.00022518,0.14911854,0.33424969,-0.05501275,-0.178
 01335,-0.13772938,-0.01662594,-0.02801433,-0.01477032,0.07183360,0.206
 61791,0.15194257,-0.00061825,0.00063228,0.00051600,-0.00028371,-0.0009
 3734,-0.00113101,-0.00007406,-0.00008364,0.00005076,0.31625139,0.00083
 890,-0.00048874,0.00082424,-0.00146981,0.00074699,-0.00102607,0.000095
 71,-0.00015452,-0.00005697,-0.10837278,0.04947310,0.00045898,0.0001786
 8,0.00042071,-0.00059015,-0.00001764,-0.00028818,0.00013097,-0.0000870
 9,0.00001993,0.21708407,-0.06143763,0.20831700,0.00081951,-0.00049789,
 0.00063315,-0.00016984,0.00015741,-0.00029469,-0.00021238,0.00031760,-
 0.00015599,-0.00029163,-0.00000644,0.00020074,0.28615520,0.00006427,-0
 .00046731,0.00170709,0.00004675,-0.00037668,-0.00037125,0.00008445,0.0
 0049878,-0.00047876,0.00004007,-0.00015138,-0.00001862,0.27695848,0.46
 745859,-0.00000729,0.00089546,-0.00004464,-0.00002979,-0.00028339,0.00
 014174,0.00004797,-0.00013791,-0.00026706,0.00016268,-0.00012649,0.000
 07521,0.18588639,-0.04427472,0.41497119,-0.00008699,0.00015957,-0.0003
 1378,0.00004030,0.00001642,0.00006073,0.00001482,-0.00010084,0.0000739
 8,0.00014243,0.00003231,-0.00008053,-0.09260072,-0.16266597,0.03178706
 ,0.10223505,-0.00004819,0.00009320,-0.00019932,0.00002298,0.00002410,0
 .00009602,-0.00000149,-0.00005138,0.00006760,0.00000230,0.00005744,-0.
 00001659,-0.18388532,-0.38162477,0.11952079,0.18611480,0.39497754,-0.0
 0011176,0.00012937,-0.00037642,0.00002593,0.00011037,0.00011753,-0.000
 00072,-0.00006165,0.00004350,0.00001248,0.00010531,-0.00005796,0.05802
 609,0.15970995,-0.09079454,-0.04397366,-0.13096974,0.08252152,-0.00037
 862,0.00005116,0.00000890,0.00010054,-0.00006349,0.00010204,0.00018271
 ,-0.00006535,-0.00000990,0.00003544,-0.00001282,-0.00002203,-0.1871387
 4,-0.11320104,-0.20883891,-0.01016798,-0.00207929,-0.01655226,0.196961
 60,-0.00016104,-0.00017381,-0.00068077,-0.00003449,0.00017473,0.000114
 01,0.00001362,-0.00023553,0.00043234,-0.00001504,0.00005828,-0.0000058
 3,-0.09124503,-0.08085862,-0.07661801,-0.02441652,-0.01153716,-0.03211
 340,0.11581140,0.09169353,0.00030604,-0.00030119,0.00048183,-0.0000488
 4,0.00003273,-0.00016413,-0.00006943,0.00026820,-0.00010763,-0.0000604
 3,0.00000707,-0.00000103,-0.23593538,-0.11821691,-0.30403083,0.0110840
 1,0.01023647,0.00828882,0.22579429,0.10880928,0.29556483,-0.00627979,-
 0.00399227,-0.00442843,0.00079769,-0.00005083,-0.00002963,-0.00144029,
 0.00077579,0.00033999,-0.00081464,-0.00207844,-0.00217254,0.00036398,0
 .00032791,-0.00039853,-0.00026898,-0.00008180,-0.00010401,-0.00005458,
 -0.00004412,0.00011218,0.58585142,-0.00171233,0.00090127,-0.00038767,0
 .00013250,-0.00066997,-0.00049517,0.00009317,0.00028620,0.00027570,-0.
 00121171,-0.00177123,0.00061118,0.00032068,0.00041428,0.00028956,-0.00
 020659,-0.00007417,-0.00025842,-0.00004111,-0.00018430,0.00001609,0.09
 511648,0.50490504,-0.00318122,-0.00106261,0.00071525,-0.00067956,-0.00
 052169,-0.00106922,-0.00029742,0.00016548,-0.00000037,-0.00212908,0.00
 150359,-0.00078141,-0.00058137,0.00040454,-0.00021122,0.00010141,-0.00
 018780,-0.00000182,0.00015389,0.00000645,0.00001639,0.17533499,0.01828
 920,0.06660735,0.00190893,0.00035629,0.00075806,-0.00248608,0.00128524
 ,0.00060837,0.00036291,0.00035843,0.00014076,-0.29744398,0.09115530,-0
 .23765114,0.00076124,0.00005613,0.00003210,-0.00025925,-0.00002228,-0.
 00014358,-0.00016118,-0.00005306,0.00015411,-0.00464822,0.00302968,0.0
 0136134,0.53073546,-0.00148171,-0.00435501,-0.00421491,0.00194397,0.00
 118186,0.00187557,0.00078697,0.00004404,-0.00018672,0.10559446,-0.0430
 4779,0.06992790,0.00001370,0.00069860,0.00030305,-0.00002087,-0.000179
 76,-0.00036622,-0.00004314,-0.00019512,0.00001934,0.00456415,0.0000347
 5,-0.00085126,-0.27856388,0.19908969,-0.00050983,-0.00418035,-0.001432
 67,0.00044148,0.00085645,-0.00190869,0.00042248,-0.00029986,-0.0000591
 6,-0.19392566,0.04422536,-0.21780025,0.00001941,-0.00005121,-0.0007126
 2,-0.00006447,-0.00007677,0.00013694,0.00006327,0.00010929,0.00010311,
 0.00307600,-0.00122740,0.00065002,0.04651008,0.09850177,0.42914816,0.0
 0134858,-0.00018783,0.00285511,-0.00157342,0.00087871,0.00017271,0.000
 91614,-0.00097741,-0.00040961,0.00142132,0.00102660,0.00001671,-0.0003
 7284,-0.00032982,0.00006703,0.00016425,0.00004111,0.00011661,0.0000776
 4,0.00012707,-0.00012148,-0.09723982,-0.11960877,-0.02618465,-0.000894
 33,-0.00116887,-0.00011771,0.10927698,-0.00003825,-0.00322368,-0.00070
 781,0.00028581,0.00054213,0.00060424,-0.00123709,0.00010157,-0.0004926
 1,0.00052807,-0.00107876,-0.00042187,-0.00012443,-0.00005142,-0.000121
 85,0.00003423,-0.00000576,0.00004493,0.00002936,0.00007008,-0.00000830
 ,-0.17009286,-0.44539623,-0.04367786,-0.00070584,0.00046955,0.00006346
 ,0.16044074,0.44659847,0.00146112,-0.00066732,-0.00229455,0.00145731,0
 .00029476,0.00144245,-0.00013298,-0.00000579,-0.00019062,0.00019040,-0
 .00154865,-0.00011537,0.00003050,-0.00038748,0.00002363,0.00005987,0.0
 0010158,0.00009242,-0.00004972,0.00009385,-0.00005020,-0.02546116,-0.0
 2945584,-0.01322336,-0.00031879,0.00049304,-0.00033793,0.02791278,0.04
 065829,0.01581828,0.00035056,-0.00048501,-0.00004856,-0.00006016,0.000
 04920,-0.00006745,-0.00022320,0.00012943,-0.00009429,-0.00069443,0.000
 29778,-0.00028736,-0.00001112,-0.00006626,0.00012867,0.00002792,0.0000
 2076,-0.00001421,0.00000360,0.00000619,-0.00002598,-0.46941962,0.02146
 193,-0.14242339,0.00018796,-0.00009819,0.00023256,-0.01503179,0.009656
 23,-0.00453716,0.48510314,-0.00101257,-0.00017708,-0.00047852,-0.00007
 536,-0.00012901,-0.00009023,-0.00022999,0.00020271,-0.00008770,0.00000
 094,0.00048989,0.00076082,-0.00005255,-0.00011244,-0.00000362,0.000089
 70,0.00005187,0.00008103,-0.00000356,0.00001501,0.00001428,0.07384720,
 -0.05359788,0.02455852,0.00071112,-0.00070971,-0.00046315,-0.04269174,
 0.00395344,-0.01289440,-0.03099748,0.04949579,-0.00033602,-0.00028348,
 0.00006515,-0.00022295,-0.00005463,-0.00001464,-0.00018452,-0.00005058
 ,0.00015182,0.00010038,0.00058032,0.00089013,0.00018712,-0.00001916,-0
 .00001454,-0.00009055,0.00003619,-0.00002948,-0.00004630,0.00000319,-0
 .00000162,-0.14254461,0.00857179,-0.04813670,0.00065440,-0.00057145,-0
 .00045717,-0.00370995,0.00275066,-0.00155545,0.14696914,-0.01085302,0.
 04908815,-0.00031960,-0.00091540,-0.00078244,0.00087557,0.00063725,0.0
 0034140,0.00011387,-0.00016366,-0.00013464,-0.01984865,0.01881656,0.02
 450337,-0.00018842,-0.00003220,-0.00010599,0.00006586,0.00001750,0.000
 06205,0.00007770,0.00000917,-0.00003110,-0.00053269,0.00025333,-0.0000
 7815,-0.22296954,0.16725876,0.13952702,-0.00018968,0.00011700,0.000065
 58,-0.00005227,0.00021788,0.00023149,0.24310722,-0.00034211,-0.0004372
 4,-0.00009729,0.00086276,-0.00009979,-0.00051671,0.00001949,-0.0001138
 3,-0.00022108,0.00425798,-0.00591767,-0.00991209,0.00003044,-0.0002021
 8,0.00000025,-0.00002250,0.00006579,0.00008765,0.00001357,0.00004630,-
 0.00000052,-0.00003167,0.00029698,0.00025982,0.18214487,-0.14964834,-0
 .13782045,-0.00002850,0.00010703,-0.00000973,0.00005988,0.00007025,-0.
 00019003,-0.18643016,0.15557103,-0.00024324,-0.00029977,-0.00023353,0.
 00035396,-0.00001972,-0.00016796,0.00004309,-0.00016805,0.00011546,-0.
 02155375,0.01636666,0.01285040,-0.00016778,0.00013042,0.00016815,0.000
 05160,-0.00001676,-0.00008460,0.00002705,-0.00003221,-0.00007427,-0.00
 040275,0.00033282,0.00058992,0.18556237,-0.16345173,-0.19791889,-0.000
 07038,-0.00005306,-0.00009000,0.00001763,-0.00006895,0.00011234,-0.164
 25402,0.14815881,0.18462164,0.00024680,-0.00038508,0.00009141,-0.00003
 840,0.00024309,0.00000964,-0.00002331,0.00008903,0.00000028,-0.0004471
 5,0.00024442,0.00000381,-0.00128620,-0.00234628,-0.00326683,-0.0012723
 0,0.00087622,0.00206958,0.00034624,-0.00038783,-0.00004788,0.00090225,
 0.00051825,-0.00033083,-0.00002107,-0.00099654,0.00069277,-0.00030202,
 -0.00001834,-0.00012722,-0.00014241,-0.00046225,0.00030615,0.00014373,
 0.00016365,-0.00023810,0.54964861,-0.00029787,-0.00024862,0.00001714,0
 .00010059,-0.00001459,-0.00005780,0.00003846,0.00008629,0.00006150,0.0
 0033105,-0.00004629,-0.00032814,-0.00273127,-0.00041683,-0.00221307,0.
 00064532,-0.00202082,0.00009439,-0.00036156,0.00008190,-0.00003497,-0.
 00037412,-0.00103768,0.00089722,-0.00062764,0.00030116,0.00032251,0.00
 030555,0.00010871,0.00011009,-0.00016238,0.00016934,-0.00036728,0.0000
 7192,-0.00023256,0.00006497,-0.03327275,0.46236720,0.00015937,0.000160
 98,0.00059344,-0.00011068,-0.00026579,-0.00022825,-0.00000750,0.000047
 67,-0.00017975,-0.00029776,-0.00064470,0.00037648,-0.00292567,-0.00157
 673,-0.00158589,0.00242933,0.00054919,0.00100692,-0.00008078,-0.000068
 59,0.00055766,0.00022155,0.00099020,0.00049794,0.00110433,0.00107601,-
 0.00035873,-0.00027368,-0.00001657,-0.00028959,0.00010207,-0.00039257,
 -0.00008533,-0.00038134,-0.00007863,0.00011751,-0.17749732,0.18427784,
 0.13680217,-0.00002762,0.00013445,-0.00004569,0.00000836,-0.00005206,-
 0.00000627,0.00000800,-0.00002979,0.00000444,0.00003051,-0.00010993,0.
 00006073,0.00025687,0.00022158,0.00004234,-0.00075921,-0.00027059,-0.0
 0013926,0.00005296,-0.00006967,-0.00014787,-0.00023387,0.00008897,-0.0
 0002464,0.00011665,0.00022013,-0.00014297,0.00003702,0.00001539,0.0000
 0362,0.00013920,0.00010383,-0.00008865,-0.00004954,-0.00004438,0.00004
 368,-0.47492733,-0.02587385,0.13267342,0.48814188,0.00016499,-0.000079
 19,-0.00001344,-0.00003739,0.00007689,0.00001802,-0.00003450,-0.000017
 39,0.00000500,-0.00017360,0.00012205,0.00004709,0.00012847,-0.00052346
 ,-0.00037728,-0.00024513,0.00036113,0.00024897,0.00001829,-0.00000596,
 -0.00010081,0.00056386,0.00038527,-0.00049348,0.00005420,-0.00023879,0
 .00014860,-0.00017373,-0.00008141,-0.00004638,-0.00003393,-0.00024741,
 0.00036614,0.00000874,0.00001864,-0.00001348,-0.07492291,-0.04794825,0
 .00648876,0.03424229,0.04622496,-0.00008553,-0.00004607,-0.00016221,0.
 00002754,0.00003273,0.00004589,-0.00001167,-0.00000420,0.00005749,0.00
 017633,0.00006439,-0.00005150,0.00022729,-0.00033072,-0.00069159,-0.00
 106640,0.00019406,0.00068639,-0.00007686,-0.00019461,-0.00014461,-0.00
 034357,-0.00053839,-0.00002757,-0.00018974,-0.00000278,-0.00007028,0.0
 0013109,0.00003553,0.00014761,0.00002396,0.00036207,-0.00008111,0.0000
 5560,0.00000097,0.00000815,0.11251164,-0.00834179,-0.04127391,-0.13311
 717,0.00594501,0.04518479,-0.00013515,0.00006466,0.00003086,0.00002440
 ,-0.00011677,-0.00003836,0.00000631,-0.00002017,0.00000546,0.00024773,
 -0.00005114,-0.00006344,-0.00100753,0.00005990,-0.00015277,0.00087788,
 -0.00057112,-0.00012768,-0.00016773,-0.00002976,-0.00007400,-0.0001847
 9,-0.00018652,0.00012418,-0.00024689,0.00060006,-0.00016836,0.00010540
 ,0.00001147,0.00000769,0.00002870,0.00011869,-0.00002285,-0.00005127,-
 0.00025066,0.00021309,-0.06770717,0.06337775,0.04476455,-0.01223752,0.
 04256678,0.02091995,0.07909630,0.00004069,0.00015266,0.00005641,-0.000
 03525,-0.00010223,-0.00005048,-0.00001484,-0.00003369,-0.00000413,-0.0
 0005363,-0.00020037,0.00013587,0.00007585,0.00008577,0.00015561,-0.000
 20521,-0.00014582,-0.00027835,-0.00005674,0.00011765,-0.00002891,0.000
 02562,0.00022054,0.00006023,0.00040930,0.00051746,-0.00033609,-0.00004
 841,-0.00002889,-0.00002033,0.00002114,-0.00009595,0.00002683,-0.00017
 037,-0.00001216,0.00010892,0.11279902,-0.40408506,-0.18985614,-0.00812
 837,0.00118097,0.00232017,-0.10491414,0.40401795,0.00000069,-0.0000286
 8,-0.00020872,0.00003365,0.00012865,0.00010699,0.00001536,-0.00001715,
 0.00004414,0.00001690,0.00037810,-0.00006058,-0.00012985,0.00034951,-0
 .00009190,0.00025017,-0.00097261,-0.00035679,-0.00020943,-0.00005600,-
 0.00004033,0.00007426,-0.00003886,-0.00038293,-0.00037273,-0.00079702,
 0.00001241,0.00000472,0.00001954,0.00003758,-0.00002117,0.00006455,0.0
 0013243,0.00026272,0.00022483,-0.00009494,0.06443437,-0.17572533,-0.09
 248394,0.00059975,-0.01267651,-0.00418483,-0.06476917,0.18865816,0.096
 48962,-0.00386533,-0.00014080,-0.00045707,-0.00032782,-0.00281128,0.00
 173016,0.00014442,-0.00063138,-0.00000614,0.00238768,-0.00040622,-0.00
 159218,-0.00507737,0.00078204,-0.00535412,0.00184693,-0.00013559,0.000
 85440,0.00023037,0.00048911,-0.00088823,-0.00679806,0.00195203,-0.0011
 6550,-0.00494261,0.00139099,0.00394392,0.00225657,0.00109851,-0.000561
 83,-0.00020608,0.00043614,-0.00120228,-0.00018229,-0.00040265,0.000617
 55,-0.00512027,-0.00116918,0.00012011,-0.00055635,-0.00212643,0.000817
 55,0.00135134,0.00025532,-0.00019024,0.01885887,-0.00306284,-0.0064678
 3,-0.00025373,-0.00091248,0.00022677,0.00155795,0.00023122,-0.00071956
 ,0.00009561,-0.00053941,0.00190899,0.00058395,0.00054030,-0.00437095,0
 .00299163,0.00079129,0.00000856,0.00343579,0.00000431,0.00093302,-0.00
 071184,0.00152509,-0.00471287,0.00064965,0.00041214,-0.00396259,0.0002
 2785,0.00239530,-0.00208485,0.00328432,0.00014071,0.00062117,0.0000545
 1,0.00030369,0.00048775,-0.00103886,-0.00214169,-0.00706391,-0.0006909
 3,-0.00044802,0.00077194,0.00050362,-0.00065903,-0.00158882,0.00048882
 ,0.00141941,0.02601317,0.00047474,0.00025891,-0.00407719,0.00155064,0.
 00272435,0.00070950,-0.00046997,-0.00078082,0.00092938,0.00078770,0.00
 078547,-0.00379358,-0.00501993,0.00342406,-0.01693508,-0.00030878,0.00
 163768,-0.00119242,-0.00026325,0.00020101,-0.00039798,-0.00327376,0.00
 302520,-0.00524228,0.00179008,-0.00175460,-0.00899425,-0.00038929,0.00
 132328,0.00058510,0.00004555,-0.00050912,-0.00006397,0.00071846,0.0001
 1421,0.00008061,0.00138853,0.00122274,-0.00346674,0.00028452,0.0004537
 8,0.00055727,-0.00064916,-0.00094776,0.00108180,0.00333391,-0.01117836
 ,0.04021984\\-0.00000153,-0.00000037,0.00000226,0.00000098,-0.00000017
 ,-0.00000059,0.00000054,0.00000096,0.00000146,-0.00000100,0.00000100,-
 0.00000073,-0.00000347,-0.00000255,-0.00000241,-0.00000078,-0.00000050
 ,-0.00000028,0.00000132,0.00000113,0.00000344,0.00000124,0.,0.00000063
 ,0.00000081,0.00000193,0.00000169,0.00000045,0.00000086,0.00000066,-0.
 00000133,0.00000046,-0.00000014,0.00000112,-0.00000014,-0.00000105,0.0
 0000353,0.00000238,-0.00000179,-0.00000418,-0.00000085,-0.00000013,0.0
 0000243,-0.00000394,-0.00000278,-0.00000010,-0.00000018,-0.00000025\\\
 @


 "A LITTLE BIT GOES A LONG WAY"
 R.S. MULLIKEN AS QUOTED BY K. RUEDENBERG
 Job cpu time:       0 days  1 hours  1 minutes 19.5 seconds.
 Elapsed time:       0 days  0 hours  1 minutes 33.0 seconds.
 File lengths (MBytes):  RWF=     88 Int=      0 D2E=      0 Chk=      6 Scr=      1
 Normal termination of Gaussian 16 at Mon Jul 18 21:37:31 2022.
