 Entering Gaussian System, Link 0=g16
 Initial command:
 /share/sw/gaussian/g16_B.01_avx2-enabled/g16/l1.exe "/scratch/hnr2/2615644/Gau-16961.inp" -scrdir="/scratch/hnr2/2615644/"
 Entering Link 1 = /share/sw/gaussian/g16_B.01_avx2-enabled/g16/l1.exe PID=     16962.
  
 Copyright (c) 1988-2017, Gaussian, Inc.  All Rights Reserved.
  
 This is part of the Gaussian(R) 16 program.  It is based on
 the Gaussian(R) 09 system (copyright 2009, Gaussian, Inc.),
 the Gaussian(R) 03 system (copyright 2003, Gaussian, Inc.),
 the Gaussian(R) 98 system (copyright 1998, Gaussian, Inc.),
 the Gaussian(R) 94 system (copyright 1995, Gaussian, Inc.),
 the Gaussian 92(TM) system (copyright 1992, Gaussian, Inc.),
 the Gaussian 90(TM) system (copyright 1990, Gaussian, Inc.),
 the Gaussian 88(TM) system (copyright 1988, Gaussian, Inc.),
 the Gaussian 86(TM) system (copyright 1986, Carnegie Mellon
 University), and the Gaussian 82(TM) system (copyright 1983,
 Carnegie Mellon University). Gaussian is a federally registered
 trademark of Gaussian, Inc.
  
 This software contains proprietary and confidential information,
 including trade secrets, belonging to Gaussian, Inc.
  
 This software is provided under written license and may be
 used, copied, transmitted, or stored only in accord with that
 written license.
  
 The following legend is applicable only to US Government
 contracts under FAR:
  
                    RESTRICTED RIGHTS LEGEND
  
 Use, reproduction and disclosure by the US Government is
 subject to restrictions as set forth in subparagraphs (a)
 and (c) of the Commercial Computer Software - Restricted
 Rights clause in FAR 52.227-19.
  
 Gaussian, Inc.
 340 Quinnipiac St., Bldg. 40, Wallingford CT 06492
  
  
 ---------------------------------------------------------------
 Warning -- This program may not be used in any manner that
 competes with the business of Gaussian, Inc. or will provide
 assistance to any competitor of Gaussian, Inc.  The licensee
 of this program is prohibited from giving any competitor of
 Gaussian, Inc. access to this program.  By using this program,
 the user acknowledges that Gaussian, Inc. is engaged in the
 business of creating and licensing software in the field of
 computational chemistry and represents and warrants to the
 licensee that it is not a competitor of Gaussian, Inc. and that
 it will not use this program in any manner prohibited above.
 ---------------------------------------------------------------
  

 Cite this work as:
 Gaussian 16, Revision B.01,
 M. J. Frisch, G. W. Trucks, H. B. Schlegel, G. E. Scuseria, 
 M. A. Robb, J. R. Cheeseman, G. Scalmani, V. Barone, 
 G. A. Petersson, H. Nakatsuji, X. Li, M. Caricato, A. V. Marenich, 
 J. Bloino, B. G. Janesko, R. Gomperts, B. Mennucci, H. P. Hratchian, 
 J. V. Ortiz, A. F. Izmaylov, J. L. Sonnenberg, D. Williams-Young, 
 F. Ding, F. Lipparini, F. Egidi, J. Goings, B. Peng, A. Petrone, 
 T. Henderson, D. Ranasinghe, V. G. Zakrzewski, J. Gao, N. Rega, 
 G. Zheng, W. Liang, M. Hada, M. Ehara, K. Toyota, R. Fukuda, 
 J. Hasegawa, M. Ishida, T. Nakajima, Y. Honda, O. Kitao, H. Nakai, 
 T. Vreven, K. Throssell, J. A. Montgomery, Jr., J. E. Peralta, 
 F. Ogliaro, M. J. Bearpark, J. J. Heyd, E. N. Brothers, K. N. Kudin, 
 V. N. Staroverov, T. A. Keith, R. Kobayashi, J. Normand, 
 K. Raghavachari, A. P. Rendell, J. C. Burant, S. S. Iyengar, 
 J. Tomasi, M. Cossi, J. M. Millam, M. Klene, C. Adamo, R. Cammi, 
 J. W. Ochterski, R. L. Martin, K. Morokuma, O. Farkas, 
 J. B. Foresman, and D. J. Fox, Gaussian, Inc., Wallingford CT, 2016.
 
 ******************************************
 Gaussian 16:  ES64L-G16RevB.01 20-Dec-2017
                18-Jul-2022 
 ******************************************
 %nprocshared=40
 Will use up to   40 processors via shared memory.
 %mem=60GB
 %oldchk=sim007_type3_coord-5_5-0-0_10C_b1_id81786_step4900.chk
 %chk=sim007_type3_coord-5_5-0-0_10C_b1_id81786_step4900_2.chk
 Copying data from "sim007_type3_coord-5_5-0-0_10C_b1_id81786_step4900.chk" to current chk file "sim007_type3_coord-5_5-0-0_10C_b1_id81786_step4900_2.chk"
 IOpt=  2 FromEx=T IUOpen= 4 IOptOp= 5 NList=   0 IFRang= 0 IUIn= 4 IUOut= 2.
 ----------------------------------------------------------------------
 # geom=check scrf=(solvent=water,iefpcm,externaliteration,1stvac,read)
  rb3lyp/aug-cc-pvdz empiricaldispersion=gd3 scf=(maxcycle=500) int(Acc
 2E=11,grid=ultrafine)
 ----------------------------------------------------------------------
 1/28=-2,29=2,30=1,38=1,70=10002203,72=1,125=1000,172=1/1,24;
 2/12=2,40=1/2;
 3/5=16,7=10,11=2,14=-4,25=1,27=11,30=1,70=1000100,72=1,74=-5,75=-5,116=1,124=31/1,2,3;
 4/9=2/1;
 5/5=2,7=500,17=20,38=5,53=1,87=11/2;
 6/7=2,8=2,9=2,10=2,28=1,87=11/1;
 1/28=-2,70=10002205,72=1/24(1);
 99/5=1,9=1/99;
 3/5=16,7=10,11=2,14=-2,25=1,27=11,30=1,70=100,72=1,74=-5,75=-5,116=1,124=31/1,2,3;
 4/5=5,9=2,16=3,69=1/1;
 5/5=2,7=500,17=20,38=5,53=1,87=11/2;
 6/7=2,8=2,9=2,10=2,28=1,87=11/1;
 1/28=-2,70=10002205,72=1/24(-4);
 99/5=1,9=1/99;
 -----------------------------------------------------------
 MD frame sim007_type3_coord-5_5-0-0_10C_b1_id81786_step4900
 -----------------------------------------------------------
 Structure from the checkpoint file:  "sim007_type3_coord-5_5-0-0_10C_b1_id81786_step4900_2.chk"
 Charge =  1 Multiplicity = 1
 No Z-Matrix found in chk file; cartesian coordinates used.
  O                                                -0.992982468329     -2.065442508678      0.211786347205
  H                                                -1.615176730219     -1.866243366392      0.926025940180
  H                                                -1.356058429770     -2.829546837425     -0.253048590810
  H                                                -0.338697059956      0.035847645222      2.514883349493
  O                                                -0.758528228629      0.680809543920     -2.315502012223
  H                                                -0.374125369584      1.514174578664     -2.617460464765
  H                                                -1.332769036711      0.377774976310     -3.028920823138
  O                                                 1.434152578806     -1.029339058165      1.282064506258
  O                                                -1.076086200033      0.272664601841      1.933818174433
  H                                                 1.087023038635     -1.929108793122      1.190350236066
  H                                                 2.352836838402     -1.121471417876      1.562554627005
  H                                                -1.689109695825      0.787280841298      2.473192411952
  O                                                 1.121677254931      2.215818116519     -0.652011098522
  H                                                 2.052240139292      2.304940912901     -0.897208779881
  H                                                 0.893032712385      3.064204532094     -0.249580877887
  Na                                               -0.038449343395      0.131136232889     -0.208152945367
 Recover connectivity data from disk.
 SC-PCM: Self-consistent PCM reaction field calculation.
 Using the following non-standard input for PCM:
 dis
 cav
 rep
 --- end of non-standard input.
 ------------------------------------------------------------------------------
 Polarizable Continuum Model (PCM)
 =================================
 Model                : PCM.
 Atomic radii         : UFF (Universal Force Field).
 Polarization charges : Total charges.
 Charge compensation  : None.
 Solution method      : On-the-fly selection.
 Cavity type          : Scaled VdW (van der Waals Surface) (Alpha=1.100).
 Cavity algorithm     : GePol (No added spheres)
                        Default sphere list used, NSphG=   16.
                        Lebedev-Laikov grids with approx.  5.0 points / Ang**2.
                        Smoothing algorithm: York/Karplus (Gamma=1.0000).
                        Polarization charges: spherical gaussians, with
                                              point-specific exponents (IZeta= 3).
                        Self-potential: point-specific (ISelfS= 7).
                        Self-field    : sphere-specific E.n sum rule (ISelfD= 2).
 Solvent              : Water, Eps=  78.355300 Eps(inf)=   1.777849
 ------------------------------------------------------------------------------
 Spheres list:
 ISph  on   Nord     Re0    Alpha      Xe            Ye            Ze
    1   O      1    1.7500  1.100     -0.992982     -2.065443      0.211786
    2   H      2    1.4430  1.100     -1.615177     -1.866243      0.926026
    3   H      3    1.4430  1.100     -1.356058     -2.829547     -0.253049
    4   H      4    1.4430  1.100     -0.338697      0.035848      2.514883
    5   O      5    1.7500  1.100     -0.758528      0.680810     -2.315502
    6   H      6    1.4430  1.100     -0.374125      1.514175     -2.617460
    7   H      7    1.4430  1.100     -1.332769      0.377775     -3.028921
    8   O      8    1.7500  1.100      1.434153     -1.029339      1.282065
    9   O      9    1.7500  1.100     -1.076086      0.272665      1.933818
   10   H     10    1.4430  1.100      1.087023     -1.929109      1.190350
   11   H     11    1.4430  1.100      2.352837     -1.121471      1.562555
   12   H     12    1.4430  1.100     -1.689110      0.787281      2.473192
   13   O     13    1.7500  1.100      1.121677      2.215818     -0.652011
   14   H     14    1.4430  1.100      2.052240      2.304941     -0.897209
   15   H     15    1.4430  1.100      0.893033      3.064205     -0.249581
   16  Na     16    1.4915  1.100     -0.038449      0.131136     -0.208153
 ------------------------------------------------------------------------------
 SC-PCM: Now performing the calculation in vacuo, IExtIt=   0.
                          Input orientation:                          
 ---------------------------------------------------------------------
 Center     Atomic      Atomic             Coordinates (Angstroms)
 Number     Number       Type             X           Y           Z
 ---------------------------------------------------------------------
      1          8           0       -0.992982   -2.065443    0.211786
      2          1           0       -1.615177   -1.866243    0.926026
      3          1           0       -1.356058   -2.829547   -0.253049
      4          1           0       -0.338697    0.035848    2.514883
      5          8           0       -0.758528    0.680810   -2.315502
      6          1           0       -0.374125    1.514175   -2.617460
      7          1           0       -1.332769    0.377775   -3.028921
      8          8           0        1.434153   -1.029339    1.282065
      9          8           0       -1.076086    0.272665    1.933818
     10          1           0        1.087023   -1.929109    1.190350
     11          1           0        2.352837   -1.121471    1.562555
     12          1           0       -1.689110    0.787281    2.473192
     13          8           0        1.121677    2.215818   -0.652011
     14          1           0        2.052240    2.304941   -0.897209
     15          1           0        0.893033    3.064205   -0.249581
     16         11           0       -0.038449    0.131136   -0.208153
 ---------------------------------------------------------------------
                    Distance matrix (angstroms):
                    1          2          3          4          5
     1  O    0.000000
     2  H    0.967959   0.000000
     3  H    0.965273   1.544446   0.000000
     4  H    3.185556   2.787798   4.111807   0.000000
     5  O    3.739526   4.210562   4.115016   4.891304   0.000000
     6  H    4.604485   5.052102   5.042078   5.341129   0.966148
     7  H    4.072708   4.555982   4.241806   5.642593   0.964650
     8  O    2.847804   3.182072   3.658223   2.407792   4.546971
     9  O    2.905003   2.425117   3.805849   0.968226   4.280671
    10  H    2.302737   2.715825   2.977052   2.765523   4.744337
    11  H    3.729633   4.087173   4.468763   3.080693   5.288491
    12  H    3.706289   3.072520   4.541449   1.545964   4.879438
    13  O    4.852538   5.161763   5.635073   4.112686   2.942554
    14  H    5.440910   5.845760   6.196322   4.744232   3.542566
    15  H    5.484815   5.655306   6.308306   4.281398   3.560373
    16  Na   2.431551   2.786029   3.240949   2.741196   2.293812
                    6          7          8          9         10
     6  H    0.000000
     7  H    1.542628   0.000000
     8  O    4.994560   5.312289   0.000000
     9  O    4.769511   4.970484   2.901947   0.000000
    10  H    5.337657   5.383248   0.968760   3.174837   0.000000
    11  H    5.644066   6.075613   0.964958   3.720076   1.546964
    12  H    5.307759   5.528827   3.804426   0.965170   4.090400
    13  O    2.567629   3.879743   3.790690   3.910566   4.536068
    14  H    3.077633   4.440321   4.030966   4.683085   4.818374
    15  H    3.100828   4.460474   4.404072   4.054301   5.200405
    16  Na   2.798256   3.113330   2.394996   2.384274   2.732601
                   11         12         13         14         15
    11  H    0.000000
    12  H    4.561790   0.000000
    13  O    4.190174   4.439385   0.000000
    14  H    4.228604   5.259334   0.966443   0.000000
    15  H    4.789024   4.389229   0.966431   1.529596   0.000000
    16  Na   3.228418   3.216336   2.426685   3.093737   3.077704
                   16
    16  Na   0.000000
 Stoichiometry    H10NaO5(1+)
 Framework group  C1[X(H10NaO5)]
 Deg. of freedom    42
 Full point group                 C1      NOp   1
 Largest Abelian subgroup         C1      NOp   1
 Largest concise Abelian subgroup C1      NOp   1
                         Standard orientation:                         
 ---------------------------------------------------------------------
 Center     Atomic      Atomic             Coordinates (Angstroms)
 Number     Number       Type             X           Y           Z
 ---------------------------------------------------------------------
      1          8           0        1.732161   -1.504502   -0.290297
      2          1           0        2.167773   -1.356647    0.561363
      3          1           0        2.001479   -2.385535   -0.578395
      4          1           0        1.746245    1.334490    1.154586
      5          8           0       -1.996417   -1.588637   -0.017022
      6          1           0       -2.848085   -1.132782    0.000306
      7          1           0       -2.198131   -2.531803    0.000232
      8          8           0        1.413137    1.166851   -1.224152
      9          8           0        1.274644    0.631560    1.624633
     10          1           0        2.034689    0.459920   -1.453104
     11          1           0        1.549962    1.867612   -1.873272
     12          1           0        1.364201    0.829704    2.564990
     13          8           0       -2.186314    1.347608   -0.049157
     14          1           0       -2.543317    1.819716   -0.813143
     15          1           0       -2.479671    1.862093    0.714541
     16         11           0       -0.244803   -0.108164   -0.057286
 ---------------------------------------------------------------------
 Rotational constants (GHZ):           2.0581253           1.3415868           1.1082828
 Standard basis: Aug-CC-pVDZ (5D, 7F)
 There are   244 symmetry adapted cartesian basis functions of A   symmetry.
 There are   232 symmetry adapted basis functions of A   symmetry.
   232 basis functions,   406 primitive gaussians,   244 cartesian basis functions
    30 alpha electrons       30 beta electrons
       nuclear repulsion energy       306.2934638762 Hartrees.
 NAtoms=   16 NActive=   16 NUniq=   16 SFac= 1.00D+00 NAtFMM=   60 NAOKFM=F Big=F
 Integral buffers will be    131072 words long.
 Raffenetti 2 integral format.
 Two-electron integral symmetry is turned on.
 Nuclear repulsion after empirical dispersion term =      306.2838987595 Hartrees.
 One-electron integrals computed using PRISM.
 NBasis=   232 RedAO= T EigKep=  1.91D-04  NBF=   232
 NBsUse=   232 1.00D-06 EigRej= -1.00D+00 NBFU=   232
 SCF N**3 symmetry information disabled.
 ExpMin= 6.16D-03 ExpMax= 3.17D+04 ExpMxC= 1.08D+03 IAcc=3 IRadAn=         5 AccDes= 0.00D+00
 Harris functional with IExCor=  402 and IRadAn=       5 diagonalized for initial guess.
 HarFok:  IExCor=  402 AccDes= 0.00D+00 IRadAn=         5 IDoV= 1 UseB2=F ITyADJ=14
 ICtDFT=  3500011 ScaDFX=  1.000000  1.000000  1.000000  1.000000
 FoFCou: FMM=F IPFlag=           0 FMFlag=      100000 FMFlg1=           0
         NFxFlg=           0 DoJE=T BraDBF=F KetDBF=T FulRan=T
         wScrn=  0.000000 ICntrl=       500 IOpCl=  0 I1Cent=   200000004 NGrid=           0
         NMat0=    1 NMatS0=      1 NMatT0=    0 NMatD0=    1 NMtDS0=    0 NMtDT0=    0
 Petite list used in FoFCou.
 Requested convergence on RMS density matrix=1.00D-08 within 500 cycles.
 Requested convergence on MAX density matrix=1.00D-06.
 Requested convergence on             energy=1.00D-06.
 No special actions if energy rises.
 SCF Done:  E(RB3LYP) =  -544.464576665     A.U. after   10 cycles
            NFock= 10  Conv=0.34D-08     -V/T= 2.0059

 **********************************************************************

            Population analysis using the SCF Density.

 **********************************************************************

 Orbital symmetries:
       Occupied  (A) (A) (A) (A) (A) (A) (A) (A) (A) (A) (A) (A)
                 (A) (A) (A) (A) (A) (A) (A) (A) (A) (A) (A) (A)
                 (A) (A) (A) (A) (A) (A)
       Virtual   (A) (A) (A) (A) (A) (A) (A) (A) (A) (A) (A) (A)
                 (A) (A) (A) (A) (A) (A) (A) (A) (A) (A) (A) (A)
                 (A) (A) (A) (A) (A) (A) (A) (A) (A) (A) (A) (A)
                 (A) (A) (A) (A) (A) (A) (A) (A) (A) (A) (A) (A)
                 (A) (A) (A) (A) (A) (A) (A) (A) (A) (A) (A) (A)
                 (A) (A) (A) (A) (A) (A) (A) (A) (A) (A) (A) (A)
                 (A) (A) (A) (A) (A) (A) (A) (A) (A) (A) (A) (A)
                 (A) (A) (A) (A) (A) (A) (A) (A) (A) (A) (A) (A)
                 (A) (A) (A) (A) (A) (A) (A) (A) (A) (A) (A) (A)
                 (A) (A) (A) (A) (A) (A) (A) (A) (A) (A) (A) (A)
                 (A) (A) (A) (A) (A) (A) (A) (A) (A) (A) (A) (A)
                 (A) (A) (A) (A) (A) (A) (A) (A) (A) (A) (A) (A)
                 (A) (A) (A) (A) (A) (A) (A) (A) (A) (A) (A) (A)
                 (A) (A) (A) (A) (A) (A) (A) (A) (A) (A) (A) (A)
                 (A) (A) (A) (A) (A) (A) (A) (A) (A) (A) (A) (A)
                 (A) (A) (A) (A) (A) (A) (A) (A) (A) (A) (A) (A)
                 (A) (A) (A) (A) (A) (A) (A) (A) (A) (A)
 The electronic state is 1-A.
 Alpha  occ. eigenvalues --  -38.58571 -19.31835 -19.31193 -19.31062 -19.30950
 Alpha  occ. eigenvalues --  -19.30524  -2.32067  -1.25408  -1.25380  -1.25311
 Alpha  occ. eigenvalues --   -1.17996  -1.17670  -1.17072  -1.16881  -1.16679
 Alpha  occ. eigenvalues --   -0.69952  -0.69484  -0.68853  -0.68716  -0.68687
 Alpha  occ. eigenvalues --   -0.57409  -0.56456  -0.55716  -0.55640  -0.55498
 Alpha  occ. eigenvalues --   -0.48518  -0.47981  -0.47893  -0.47802  -0.47200
 Alpha virt. eigenvalues --   -0.16437  -0.14037  -0.12740  -0.12145  -0.10729
 Alpha virt. eigenvalues --   -0.08281  -0.07646  -0.07238  -0.07127  -0.06413
 Alpha virt. eigenvalues --   -0.05791  -0.05332  -0.05173  -0.04915  -0.04867
 Alpha virt. eigenvalues --   -0.04594  -0.04216  -0.02626   0.00158   0.00335
 Alpha virt. eigenvalues --    0.00676   0.01176   0.01673   0.01880   0.02009
 Alpha virt. eigenvalues --    0.02239   0.02763   0.02922   0.03610   0.03895
 Alpha virt. eigenvalues --    0.04117   0.04376   0.04663   0.05268   0.05696
 Alpha virt. eigenvalues --    0.05822   0.06248   0.07186   0.07954   0.08373
 Alpha virt. eigenvalues --    0.08705   0.09988   0.12106   0.12746   0.13166
 Alpha virt. eigenvalues --    0.13684   0.14082   0.15311   0.16844   0.17149
 Alpha virt. eigenvalues --    0.18681   0.18979   0.19996   0.21492   0.22111
 Alpha virt. eigenvalues --    0.22682   0.23529   0.25236   0.25501   0.26365
 Alpha virt. eigenvalues --    0.26971   0.27971   0.28898   0.30806   0.30886
 Alpha virt. eigenvalues --    0.31513   0.32514   0.33207   0.33613   0.34083
 Alpha virt. eigenvalues --    0.34707   0.35111   0.35375   0.36476   0.37032
 Alpha virt. eigenvalues --    0.37387   0.38110   0.39072   0.40057   0.40713
 Alpha virt. eigenvalues --    0.41321   0.42403   0.43916   0.44747   0.46137
 Alpha virt. eigenvalues --    0.47101   0.48174   0.48762   0.51504   0.56283
 Alpha virt. eigenvalues --    0.56652   0.58750   0.58925   0.60967   0.61869
 Alpha virt. eigenvalues --    0.62688   0.69435   0.71011   0.72265   0.72579
 Alpha virt. eigenvalues --    0.74276   0.79867   0.80832   0.81274   0.83605
 Alpha virt. eigenvalues --    0.84836   0.85801   0.86025   0.86966   0.88438
 Alpha virt. eigenvalues --    0.90136   0.90986   0.92589   0.93525   0.94066
 Alpha virt. eigenvalues --    0.96604   1.02624   1.05272   1.05504   1.08514
 Alpha virt. eigenvalues --    1.10145   1.11240   1.13934   1.17570   1.17690
 Alpha virt. eigenvalues --    1.19064   1.20989   1.24269   1.26905   1.27757
 Alpha virt. eigenvalues --    1.31010   1.35952   1.44491   1.49372   1.51031
 Alpha virt. eigenvalues --    1.55928   1.61653   1.64327   1.65198   1.66014
 Alpha virt. eigenvalues --    1.66979   1.68668   1.71911   1.72602   1.73422
 Alpha virt. eigenvalues --    1.76171   1.76855   1.77130   1.77224   1.78055
 Alpha virt. eigenvalues --    1.79841   1.98412   2.00336   2.01743   2.02266
 Alpha virt. eigenvalues --    2.02984   2.03756   2.05494   2.06083   2.06870
 Alpha virt. eigenvalues --    2.08165   2.15566   2.19810   2.21016   2.21303
 Alpha virt. eigenvalues --    2.24285   2.33892   2.36178   2.40412   2.40747
 Alpha virt. eigenvalues --    2.41646   2.50715   2.60348   2.60498   2.64487
 Alpha virt. eigenvalues --    2.68576   2.81411   3.15870   3.16901   3.17639
 Alpha virt. eigenvalues --    3.17918   3.19572   3.20109   3.21435   3.22121
 Alpha virt. eigenvalues --    3.22698   3.24240   3.25554   3.27525   3.28644
 Alpha virt. eigenvalues --    3.29732   3.32994   3.52879   3.54614   3.58481
 Alpha virt. eigenvalues --    3.59054   3.60067   3.75511   3.76078   3.79854
 Alpha virt. eigenvalues --    3.80563   3.80826
          Condensed to atoms (all electrons):
               1          2          3          4          5          6
     1  O    7.918173   0.380565   0.261547  -0.001129  -0.011937  -0.001514
     2  H    0.380565   0.567913  -0.115519   0.002928  -0.002515  -0.000426
     3  H    0.261547  -0.115519   0.595477  -0.000037   0.003755  -0.000205
     4  H   -0.001129   0.002928  -0.000037   0.569916  -0.000336  -0.000414
     5  O   -0.011937  -0.002515   0.003755  -0.000336   7.727094   0.376911
     6  H   -0.001514  -0.000426  -0.000205  -0.000414   0.376911   0.594676
     7  H    0.002446  -0.000026   0.000319  -0.000193   0.310383  -0.100738
     8  O   -0.011973  -0.000513   0.002289   0.005051  -0.005411  -0.000915
     9  O   -0.022234   0.009778   0.003035   0.363943  -0.005618   0.000017
    10  H    0.012822   0.002000   0.001536   0.002430  -0.000656  -0.000455
    11  H    0.000906  -0.000229   0.000399   0.000610   0.000207   0.000185
    12  H    0.002907   0.000759   0.000835  -0.119124   0.002205   0.000261
    13  O   -0.008471  -0.000898  -0.000567   0.000988  -0.029674   0.014578
    14  H   -0.000631  -0.000160  -0.000051  -0.000172   0.001569   0.001383
    15  H   -0.000451  -0.000048   0.000044  -0.000033   0.000078   0.001162
    16  Na  -0.092312  -0.044677   0.026217  -0.034020  -0.053593  -0.046944
               7          8          9         10         11         12
     1  O    0.002446  -0.011973  -0.022234   0.012822   0.000906   0.002907
     2  H   -0.000026  -0.000513   0.009778   0.002000  -0.000229   0.000759
     3  H    0.000319   0.002289   0.003035   0.001536   0.000399   0.000835
     4  H   -0.000193   0.005051   0.363943   0.002430   0.000610  -0.119124
     5  O    0.310383  -0.005411  -0.005618  -0.000656   0.000207   0.002205
     6  H   -0.100738  -0.000915   0.000017  -0.000455   0.000185   0.000261
     7  H    0.585126  -0.000275   0.000592  -0.000072   0.000088   0.000246
     8  O   -0.000275   7.825531  -0.021710   0.389073   0.268559   0.003326
     9  O    0.000592  -0.021710   7.902187  -0.005902   0.004545   0.268417
    10  H   -0.000072   0.389073  -0.005902   0.580757  -0.125841  -0.000243
    11  H    0.000088   0.268559   0.004545  -0.125841   0.613837   0.000817
    12  H    0.000246   0.003326   0.268417  -0.000243   0.000817   0.606472
    13  O    0.001901  -0.009202  -0.017904  -0.001996   0.003504  -0.000069
    14  H    0.000427   0.000304   0.001043  -0.000613   0.000327   0.000140
    15  H    0.000511   0.000343   0.002632  -0.000235   0.000197  -0.000084
    16  Na   0.017692  -0.065158  -0.080915  -0.049460   0.027540   0.027727
              13         14         15         16
     1  O   -0.008471  -0.000631  -0.000451  -0.092312
     2  H   -0.000898  -0.000160  -0.000048  -0.044677
     3  H   -0.000567  -0.000051   0.000044   0.026217
     4  H    0.000988  -0.000172  -0.000033  -0.034020
     5  O   -0.029674   0.001569   0.000078  -0.053593
     6  H    0.014578   0.001383   0.001162  -0.046944
     7  H    0.001901   0.000427   0.000511   0.017692
     8  O   -0.009202   0.000304   0.000343  -0.065158
     9  O   -0.017904   0.001043   0.002632  -0.080915
    10  H   -0.001996  -0.000613  -0.000235  -0.049460
    11  H    0.003504   0.000327   0.000197   0.027540
    12  H   -0.000069   0.000140  -0.000084   0.027727
    13  O    7.868682   0.309362   0.307006  -0.073913
    14  H    0.309362   0.576959  -0.093337   0.009086
    15  H    0.307006  -0.093337   0.573133   0.009612
    16  Na  -0.073913   0.009086   0.009612  10.513441
 Mulliken charges:
               1
     1  O   -0.428713
     2  H    0.201068
     3  H    0.220924
     4  H    0.209593
     5  O   -0.312462
     6  H    0.162440
     7  H    0.181573
     8  O   -0.379319
     9  O   -0.401908
    10  H    0.196856
    11  H    0.204349
    12  H    0.205410
    13  O   -0.363325
    14  H    0.194366
    15  H    0.199469
    16  Na   0.909678
 Sum of Mulliken charges =   1.00000
 Mulliken charges with hydrogens summed into heavy atoms:
               1
     1  O   -0.006720
     5  O    0.031550
     8  O    0.021886
     9  O    0.013095
    13  O    0.030511
    16  Na   0.909678
 Electronic spatial extent (au):  <R**2>=           1156.5939
 Charge=              1.0000 electrons
 Dipole moment (field-independent basis, Debye):
    X=             -0.4598    Y=              0.7416    Z=              0.1330  Tot=              0.8826
 Quadrupole moment (field-independent basis, Debye-Ang):
   XX=             -8.7646   YY=            -14.8410   ZZ=            -24.4220
   XY=             -2.4398   XZ=              0.1377   YZ=             -0.0284
 Traceless Quadrupole moment (field-independent basis, Debye-Ang):
   XX=              7.2445   YY=              1.1682   ZZ=             -8.4128
   XY=             -2.4398   XZ=              0.1377   YZ=             -0.0284
 Octapole moment (field-independent basis, Debye-Ang**2):
  XXX=            -27.3069  YYY=            -15.2917  ZZZ=             10.2824  XYY=             -9.4201
  XXY=              0.2432  XXZ=             -2.2710  XZZ=             16.0591  YZZ=             19.3800
  YYZ=             -7.1972  XYZ=              0.6522
 Hexadecapole moment (field-independent basis, Debye-Ang**3):
 XXXX=           -480.5276 YYYY=           -237.8606 ZZZZ=           -133.6271 XXXY=            -22.9436
 XXXZ=             -1.8294 YYYX=            -13.0905 YYYZ=             -1.9313 ZZZX=             11.5180
 ZZZY=              2.0425 XXYY=            -41.6502 XXZZ=           -102.6912 YYZZ=            -66.7651
 XXYZ=             -3.0408 YYXZ=            -11.0891 ZZXY=              7.9959
 N-N= 3.062838987595D+02 E-N=-1.895973391113D+03  KE= 5.412948566105D+02
 SC-PCM: Now building the cavity and doing the perturbative PCM calculation.
 SC-PCM: Using the SCF Density.
 Inv3:  Mode=1 IEnd=     7366467.
 Iteration    1 A*A^-1 deviation from unit magnitude is 3.22D-15 for    589.
 Iteration    1 A*A^-1 deviation from orthogonality  is 2.27D-15 for   1447    371.
 Iteration    1 A^-1*A deviation from unit magnitude is 3.22D-15 for    589.
 Iteration    1 A^-1*A deviation from orthogonality  is 3.97D-14 for   1431   1296.
 With in-vacuo wavefunction:
 Error on total polarization charges =  0.01022
 SC-PCM: The total energy in vacuo is      -544.464576665 a.u.
 SC-PCM: The total energy including the PCM contribution is      -544.541951849 a.u.
 SC-PCM: Iterating to achieve self-consistent PCM reaction field, IExtIt=   1.
 Standard basis: Aug-CC-pVDZ (5D, 7F)
 There are   244 symmetry adapted cartesian basis functions of A   symmetry.
 There are   232 symmetry adapted basis functions of A   symmetry.
   232 basis functions,   406 primitive gaussians,   244 cartesian basis functions
    30 alpha electrons       30 beta electrons
       nuclear repulsion energy       306.2934638762 Hartrees.
 NAtoms=   16 NActive=   16 NUniq=   16 SFac= 1.00D+00 NAtFMM=   60 NAOKFM=F Big=F
 Integral buffers will be    131072 words long.
 Raffenetti 2 integral format.
 Two-electron integral symmetry is turned on.
 Nuclei-solvent charges/DBFs interaction =        -4.2956584134 a.u.
 Nuclear repulsion after self-consistent solvent charges =      301.9978054628 Hartrees.
 Nuclear repulsion after empirical dispersion term =      301.9882403461 Hartrees.
 One-electron integrals computed using PRISM.
 NBasis=   232 RedAO= T EigKep=  1.91D-04  NBF=   232
 NBsUse=   232 1.00D-06 EigRej= -1.00D+00 NBFU=   232
 Initial guess from the checkpoint file:  "sim007_type3_coord-5_5-0-0_10C_b1_id81786_step4900_2.chk"
 SCF N**3 symmetry information disabled.
 B after Tr=     0.000000    0.000000    0.000000
         Rot=    1.000000    0.000000    0.000000   -0.000000 Ang=   0.00 deg.
 ExpMin= 6.16D-03 ExpMax= 3.17D+04 ExpMxC= 1.08D+03 IAcc=3 IRadAn=         5 AccDes= 0.00D+00
 Harris functional with IExCor=  402 and IRadAn=       5 diagonalized for initial guess.
 HarFok:  IExCor=  402 AccDes= 0.00D+00 IRadAn=         5 IDoV= 1 UseB2=F ITyADJ=14
 ICtDFT=  3500011 ScaDFX=  1.000000  1.000000  1.000000  1.000000
 FoFCou: FMM=F IPFlag=           0 FMFlag=      100000 FMFlg1=           0
         NFxFlg=           0 DoJE=T BraDBF=F KetDBF=T FulRan=T
         wScrn=  0.000000 ICntrl=       500 IOpCl=  0 I1Cent=   200000004 NGrid=           0
         NMat0=    1 NMatS0=      1 NMatT0=    0 NMatD0=    1 NMtDS0=    0 NMtDT0=    0
 Petite list used in FoFCou.
 Requested convergence on RMS density matrix=1.00D-08 within 500 cycles.
 Requested convergence on MAX density matrix=1.00D-06.
 Requested convergence on             energy=1.00D-06.
 No special actions if energy rises.
 SCF Done:  E(RB3LYP) =  -544.541950173     A.U. after    8 cycles
            NFock=  8  Conv=0.74D-08     -V/T= 2.0060

 **********************************************************************

            Population analysis using the SCF Density.

 **********************************************************************

 Orbital symmetries:
       Occupied  (A) (A) (A) (A) (A) (A) (A) (A) (A) (A) (A) (A)
                 (A) (A) (A) (A) (A) (A) (A) (A) (A) (A) (A) (A)
                 (A) (A) (A) (A) (A) (A)
       Virtual   (A) (A) (A) (A) (A) (A) (A) (A) (A) (A) (A) (A)
                 (A) (A) (A) (A) (A) (A) (A) (A) (A) (A) (A) (A)
                 (A) (A) (A) (A) (A) (A) (A) (A) (A) (A) (A) (A)
                 (A) (A) (A) (A) (A) (A) (A) (A) (A) (A) (A) (A)
                 (A) (A) (A) (A) (A) (A) (A) (A) (A) (A) (A) (A)
                 (A) (A) (A) (A) (A) (A) (A) (A) (A) (A) (A) (A)
                 (A) (A) (A) (A) (A) (A) (A) (A) (A) (A) (A) (A)
                 (A) (A) (A) (A) (A) (A) (A) (A) (A) (A) (A) (A)
                 (A) (A) (A) (A) (A) (A) (A) (A) (A) (A) (A) (A)
                 (A) (A) (A) (A) (A) (A) (A) (A) (A) (A) (A) (A)
                 (A) (A) (A) (A) (A) (A) (A) (A) (A) (A) (A) (A)
                 (A) (A) (A) (A) (A) (A) (A) (A) (A) (A) (A) (A)
                 (A) (A) (A) (A) (A) (A) (A) (A) (A) (A) (A) (A)
                 (A) (A) (A) (A) (A) (A) (A) (A) (A) (A) (A) (A)
                 (A) (A) (A) (A) (A) (A) (A) (A) (A) (A) (A) (A)
                 (A) (A) (A) (A) (A) (A) (A) (A) (A) (A) (A) (A)
                 (A) (A) (A) (A) (A) (A) (A) (A) (A) (A)
 The electronic state is 1-A.
 Alpha  occ. eigenvalues --  -38.43765 -19.17718 -19.17419 -19.17396 -19.17304
 Alpha  occ. eigenvalues --  -19.17259  -2.17230  -1.10626  -1.10505  -1.10497
 Alpha  occ. eigenvalues --   -1.04010  -1.03818  -1.03396  -1.03319  -1.03182
 Alpha  occ. eigenvalues --   -0.56218  -0.55402  -0.55291  -0.55107  -0.55025
 Alpha  occ. eigenvalues --   -0.43473  -0.42556  -0.42043  -0.41851  -0.41827
 Alpha  occ. eigenvalues --   -0.34550  -0.34308  -0.34190  -0.34109  -0.34092
 Alpha virt. eigenvalues --   -0.03727  -0.01702  -0.00999  -0.00479   0.01246
 Alpha virt. eigenvalues --    0.01823   0.01848   0.01953   0.02066   0.03403
 Alpha virt. eigenvalues --    0.03618   0.03939   0.04091   0.05597   0.05964
 Alpha virt. eigenvalues --    0.06257   0.06616   0.07686   0.11042   0.11993
 Alpha virt. eigenvalues --    0.12096   0.12284   0.12595   0.12975   0.13214
 Alpha virt. eigenvalues --    0.13944   0.14412   0.15016   0.15190   0.15490
 Alpha virt. eigenvalues --    0.15939   0.16160   0.16369   0.16959   0.17487
 Alpha virt. eigenvalues --    0.18041   0.18362   0.19539   0.20224   0.20513
 Alpha virt. eigenvalues --    0.21402   0.22440   0.24406   0.25211   0.25803
 Alpha virt. eigenvalues --    0.26131   0.26632   0.27964   0.29518   0.29968
 Alpha virt. eigenvalues --    0.31288   0.31759   0.32753   0.34374   0.35270
 Alpha virt. eigenvalues --    0.35835   0.36479   0.37741   0.38618   0.39592
 Alpha virt. eigenvalues --    0.39706   0.41086   0.41510   0.43397   0.43673
 Alpha virt. eigenvalues --    0.44359   0.45289   0.46103   0.46427   0.47001
 Alpha virt. eigenvalues --    0.47591   0.48117   0.48253   0.49562   0.49802
 Alpha virt. eigenvalues --    0.50402   0.51166   0.52100   0.53122   0.53599
 Alpha virt. eigenvalues --    0.54320   0.55895   0.57172   0.57749   0.59389
 Alpha virt. eigenvalues --    0.60361   0.61528   0.62024   0.64618   0.69666
 Alpha virt. eigenvalues --    0.69901   0.72047   0.72332   0.74065   0.75154
 Alpha virt. eigenvalues --    0.75962   0.82427   0.84068   0.85551   0.85795
 Alpha virt. eigenvalues --    0.87616   0.93447   0.94319   0.94743   0.97090
 Alpha virt. eigenvalues --    0.98311   0.99323   0.99417   1.00506   1.02031
 Alpha virt. eigenvalues --    1.03649   1.04493   1.06188   1.07074   1.07654
 Alpha virt. eigenvalues --    1.10239   1.16344   1.18816   1.19123   1.22039
 Alpha virt. eigenvalues --    1.23571   1.24552   1.27464   1.31312   1.31363
 Alpha virt. eigenvalues --    1.32589   1.34608   1.37915   1.40400   1.41362
 Alpha virt. eigenvalues --    1.44471   1.49727   1.58157   1.63211   1.64732
 Alpha virt. eigenvalues --    1.69511   1.75770   1.77949   1.78670   1.79570
 Alpha virt. eigenvalues --    1.80683   1.82305   1.85770   1.86306   1.87076
 Alpha virt. eigenvalues --    1.89851   1.90293   1.90527   1.91034   1.91669
 Alpha virt. eigenvalues --    1.93393   2.12305   2.13925   2.15589   2.16126
 Alpha virt. eigenvalues --    2.16583   2.17519   2.19061   2.19728   2.20591
 Alpha virt. eigenvalues --    2.21864   2.29676   2.33236   2.34657   2.35009
 Alpha virt. eigenvalues --    2.37934   2.47894   2.49701   2.53973   2.54338
 Alpha virt. eigenvalues --    2.55285   2.64341   2.73769   2.74292   2.78007
 Alpha virt. eigenvalues --    2.82182   2.95316   3.29733   3.30361   3.31269
 Alpha virt. eigenvalues --    3.31611   3.33115   3.33649   3.35115   3.35828
 Alpha virt. eigenvalues --    3.36384   3.38210   3.39272   3.41207   3.42406
 Alpha virt. eigenvalues --    3.43439   3.46713   3.66966   3.68289   3.71791
 Alpha virt. eigenvalues --    3.72696   3.73708   3.89558   3.89748   3.93603
 Alpha virt. eigenvalues --    3.94232   3.94328
          Condensed to atoms (all electrons):
               1          2          3          4          5          6
     1  O    7.975677   0.378541   0.255185  -0.001118  -0.013448  -0.001521
     2  H    0.378541   0.560394  -0.116067   0.002736  -0.002426  -0.000411
     3  H    0.255185  -0.116067   0.592295  -0.000030   0.003979  -0.000183
     4  H   -0.001118   0.002736  -0.000030   0.562803  -0.000394  -0.000412
     5  O   -0.013448  -0.002426   0.003979  -0.000394   7.822912   0.371278
     6  H   -0.001521  -0.000411  -0.000183  -0.000412   0.371278   0.587751
     7  H    0.002602   0.000027   0.000366  -0.000193   0.299101  -0.102612
     8  O   -0.015361  -0.000238   0.002554   0.004163  -0.006829  -0.000977
     9  O   -0.025045   0.008718   0.003088   0.363337  -0.006952   0.000165
    10  H    0.010935   0.001859   0.001757   0.002295  -0.000612  -0.000477
    11  H    0.001319  -0.000243   0.000393   0.000660   0.000004   0.000209
    12  H    0.003136   0.000861   0.000849  -0.119313   0.002174   0.000302
    13  O   -0.008722  -0.000873  -0.000595   0.001096  -0.033815   0.013039
    14  H   -0.000689  -0.000183  -0.000054  -0.000166   0.002042   0.001464
    15  H   -0.000508  -0.000023   0.000041  -0.000044   0.000407   0.001255
    16  Na  -0.102157  -0.043606   0.027210  -0.033794  -0.079113  -0.043399
               7          8          9         10         11         12
     1  O    0.002602  -0.015361  -0.025045   0.010935   0.001319   0.003136
     2  H    0.000027  -0.000238   0.008718   0.001859  -0.000243   0.000861
     3  H    0.000366   0.002554   0.003088   0.001757   0.000393   0.000849
     4  H   -0.000193   0.004163   0.363337   0.002295   0.000660  -0.119313
     5  O    0.299101  -0.006829  -0.006952  -0.000612   0.000004   0.002174
     6  H   -0.102612  -0.000977   0.000165  -0.000477   0.000209   0.000302
     7  H    0.584588  -0.000360   0.000540  -0.000046   0.000088   0.000266
     8  O   -0.000360   7.885984  -0.026967   0.387046   0.261726   0.003491
     9  O    0.000540  -0.026967   7.947628  -0.005233   0.004622   0.262983
    10  H   -0.000046   0.387046  -0.005233   0.575497  -0.126278  -0.000209
    11  H    0.000088   0.261726   0.004622  -0.126278   0.610635   0.000838
    12  H    0.000266   0.003491   0.262983  -0.000209   0.000838   0.602873
    13  O    0.002128  -0.009019  -0.017247  -0.002153   0.003744  -0.000017
    14  H    0.000429   0.000494   0.001033  -0.000626   0.000383   0.000133
    15  H    0.000541   0.000195   0.002555  -0.000252   0.000207  -0.000046
    16  Na   0.020766  -0.076510  -0.086676  -0.048630   0.028603   0.028247
              13         14         15         16
     1  O   -0.008722  -0.000689  -0.000508  -0.102157
     2  H   -0.000873  -0.000183  -0.000023  -0.043606
     3  H   -0.000595  -0.000054   0.000041   0.027210
     4  H    0.001096  -0.000166  -0.000044  -0.033794
     5  O   -0.033815   0.002042   0.000407  -0.079113
     6  H    0.013039   0.001464   0.001255  -0.043399
     7  H    0.002128   0.000429   0.000541   0.020766
     8  O   -0.009019   0.000494   0.000195  -0.076510
     9  O   -0.017247   0.001033   0.002555  -0.086676
    10  H   -0.002153  -0.000626  -0.000252  -0.048630
    11  H    0.003744   0.000383   0.000207   0.028603
    12  H   -0.000017   0.000133  -0.000046   0.028247
    13  O    7.926506   0.304808   0.304207  -0.083702
    14  H    0.304808   0.570405  -0.094637   0.009784
    15  H    0.304207  -0.094637   0.565977   0.009546
    16  Na  -0.083702   0.009784   0.009546  10.493394
 Mulliken charges:
               1
     1  O   -0.458825
     2  H    0.210935
     3  H    0.229211
     4  H    0.218374
     5  O   -0.358309
     6  H    0.174530
     7  H    0.191770
     8  O   -0.409394
     9  O   -0.426550
    10  H    0.205125
    11  H    0.213092
    12  H    0.213431
    13  O   -0.399384
    14  H    0.205381
    15  H    0.210578
    16  Na   0.980037
 Sum of Mulliken charges =   1.00000
 Mulliken charges with hydrogens summed into heavy atoms:
               1
     1  O   -0.018680
     5  O    0.007991
     8  O    0.008823
     9  O    0.005255
    13  O    0.016574
    16  Na   0.980037
 Electronic spatial extent (au):  <R**2>=           1157.2602
 Charge=              1.0000 electrons
 Dipole moment (field-independent basis, Debye):
    X=             -0.4851    Y=              0.7872    Z=              0.1324  Tot=              0.9341
 Quadrupole moment (field-independent basis, Debye-Ang):
   XX=             -9.1928   YY=            -15.1394   ZZ=            -24.5916
   XY=             -2.5717   XZ=              0.1609   YZ=             -0.0272
 Traceless Quadrupole moment (field-independent basis, Debye-Ang):
   XX=              7.1152   YY=              1.1685   ZZ=             -8.2837
   XY=             -2.5717   XZ=              0.1609   YZ=             -0.0272
 Octapole moment (field-independent basis, Debye-Ang**2):
  XXX=            -27.2714  YYY=            -15.0306  ZZZ=             10.1950  XYY=             -9.3209
  XXY=              0.4369  XXZ=             -2.2251  XZZ=             15.9577  YZZ=             19.5373
  YYZ=             -7.0845  XYZ=              0.6540
 Hexadecapole moment (field-independent basis, Debye-Ang**3):
 XXXX=           -486.3530 YYYY=           -240.4834 ZZZZ=           -135.0197 XXXY=            -23.3508
 XXXZ=             -1.6434 YYYX=            -14.0227 YYYZ=             -1.8801 ZZZX=             11.3591
 ZZZY=              2.0631 XXYY=            -43.2808 XXZZ=           -103.8701 YYZZ=            -67.3980
 XXYZ=             -3.1371 YYXZ=            -10.8422 ZZXY=              7.7184
 N-N= 3.019882403461D+02 E-N=-1.895863964245D+03  KE= 5.412814580524D+02
 SC-PCM: Using the SCF Density.
 SC-PCM: The equilibrium contribution to the free energy is   -0.077842336 a.u.
 SC-PCM: The total energy including the PCM contribution is      -544.542189688 a.u.
 SC-PCM: Erms=  0.24168D-04 Emax=  0.15919D-03 Qconv=  0.10000D-06
 SC-PCM: Iterating to achieve self-consistent PCM reaction field, IExtIt=   2.
 Standard basis: Aug-CC-pVDZ (5D, 7F)
 There are   244 symmetry adapted cartesian basis functions of A   symmetry.
 There are   232 symmetry adapted basis functions of A   symmetry.
   232 basis functions,   406 primitive gaussians,   244 cartesian basis functions
    30 alpha electrons       30 beta electrons
       nuclear repulsion energy       306.2934638762 Hartrees.
 NAtoms=   16 NActive=   16 NUniq=   16 SFac= 1.00D+00 NAtFMM=   60 NAOKFM=F Big=F
 Integral buffers will be    131072 words long.
 Raffenetti 2 integral format.
 Two-electron integral symmetry is turned on.
 Nuclei-solvent charges/DBFs interaction =        -4.3159500027 a.u.
 Nuclear repulsion after self-consistent solvent charges =      301.9775138735 Hartrees.
 Nuclear repulsion after empirical dispersion term =      301.9679487568 Hartrees.
 One-electron integrals computed using PRISM.
 NBasis=   232 RedAO= T EigKep=  1.91D-04  NBF=   232
 NBsUse=   232 1.00D-06 EigRej= -1.00D+00 NBFU=   232
 Initial guess from the checkpoint file:  "sim007_type3_coord-5_5-0-0_10C_b1_id81786_step4900_2.chk"
 SCF N**3 symmetry information disabled.
 B after Tr=     0.000000    0.000000    0.000000
         Rot=    1.000000    0.000000    0.000000    0.000000 Ang=   0.00 deg.
 ExpMin= 6.16D-03 ExpMax= 3.17D+04 ExpMxC= 1.08D+03 IAcc=3 IRadAn=         5 AccDes= 0.00D+00
 Harris functional with IExCor=  402 and IRadAn=       5 diagonalized for initial guess.
 HarFok:  IExCor=  402 AccDes= 0.00D+00 IRadAn=         5 IDoV= 1 UseB2=F ITyADJ=14
 ICtDFT=  3500011 ScaDFX=  1.000000  1.000000  1.000000  1.000000
 FoFCou: FMM=F IPFlag=           0 FMFlag=      100000 FMFlg1=           0
         NFxFlg=           0 DoJE=T BraDBF=F KetDBF=T FulRan=T
         wScrn=  0.000000 ICntrl=       500 IOpCl=  0 I1Cent=   200000004 NGrid=           0
         NMat0=    1 NMatS0=      1 NMatT0=    0 NMatD0=    1 NMtDS0=    0 NMtDT0=    0
 Petite list used in FoFCou.
 Requested convergence on RMS density matrix=1.00D-08 within 500 cycles.
 Requested convergence on MAX density matrix=1.00D-06.
 Requested convergence on             energy=1.00D-06.
 No special actions if energy rises.
 SCF Done:  E(RB3LYP) =  -544.542177785     A.U. after    8 cycles
            NFock=  8  Conv=0.60D-09     -V/T= 2.0060

 **********************************************************************

            Population analysis using the SCF Density.

 **********************************************************************

 Orbital symmetries:
       Occupied  (A) (A) (A) (A) (A) (A) (A) (A) (A) (A) (A) (A)
                 (A) (A) (A) (A) (A) (A) (A) (A) (A) (A) (A) (A)
                 (A) (A) (A) (A) (A) (A)
       Virtual   (A) (A) (A) (A) (A) (A) (A) (A) (A) (A) (A) (A)
                 (A) (A) (A) (A) (A) (A) (A) (A) (A) (A) (A) (A)
                 (A) (A) (A) (A) (A) (A) (A) (A) (A) (A) (A) (A)
                 (A) (A) (A) (A) (A) (A) (A) (A) (A) (A) (A) (A)
                 (A) (A) (A) (A) (A) (A) (A) (A) (A) (A) (A) (A)
                 (A) (A) (A) (A) (A) (A) (A) (A) (A) (A) (A) (A)
                 (A) (A) (A) (A) (A) (A) (A) (A) (A) (A) (A) (A)
                 (A) (A) (A) (A) (A) (A) (A) (A) (A) (A) (A) (A)
                 (A) (A) (A) (A) (A) (A) (A) (A) (A) (A) (A) (A)
                 (A) (A) (A) (A) (A) (A) (A) (A) (A) (A) (A) (A)
                 (A) (A) (A) (A) (A) (A) (A) (A) (A) (A) (A) (A)
                 (A) (A) (A) (A) (A) (A) (A) (A) (A) (A) (A) (A)
                 (A) (A) (A) (A) (A) (A) (A) (A) (A) (A) (A) (A)
                 (A) (A) (A) (A) (A) (A) (A) (A) (A) (A) (A) (A)
                 (A) (A) (A) (A) (A) (A) (A) (A) (A) (A) (A) (A)
                 (A) (A) (A) (A) (A) (A) (A) (A) (A) (A) (A) (A)
                 (A) (A) (A) (A) (A) (A) (A) (A) (A) (A)
 The electronic state is 1-A.
 Alpha  occ. eigenvalues --  -38.43668 -19.17652 -19.17395 -19.17357 -19.17286
 Alpha  occ. eigenvalues --  -19.17224  -2.17132  -1.10532  -1.10407  -1.10396
 Alpha  occ. eigenvalues --   -1.03972  -1.03764  -1.03372  -1.03286  -1.03150
 Alpha  occ. eigenvalues --   -0.56188  -0.55383  -0.55223  -0.55076  -0.54995
 Alpha  occ. eigenvalues --   -0.43422  -0.42511  -0.42002  -0.41815  -0.41787
 Alpha  occ. eigenvalues --   -0.34493  -0.34283  -0.34153  -0.34070  -0.34063
 Alpha virt. eigenvalues --   -0.03701  -0.01687  -0.00990  -0.00463   0.01255
 Alpha virt. eigenvalues --    0.01834   0.01856   0.01962   0.02075   0.03431
 Alpha virt. eigenvalues --    0.03625   0.03956   0.04104   0.05602   0.05979
 Alpha virt. eigenvalues --    0.06267   0.06632   0.07700   0.11057   0.12016
 Alpha virt. eigenvalues --    0.12119   0.12322   0.12627   0.13002   0.13250
 Alpha virt. eigenvalues --    0.13980   0.14443   0.15031   0.15219   0.15515
 Alpha virt. eigenvalues --    0.15956   0.16179   0.16392   0.16988   0.17506
 Alpha virt. eigenvalues --    0.18052   0.18397   0.19553   0.20242   0.20539
 Alpha virt. eigenvalues --    0.21434   0.22467   0.24416   0.25231   0.25838
 Alpha virt. eigenvalues --    0.26161   0.26662   0.27988   0.29556   0.30002
 Alpha virt. eigenvalues --    0.31334   0.31799   0.32793   0.34403   0.35296
 Alpha virt. eigenvalues --    0.35876   0.36524   0.37776   0.38650   0.39627
 Alpha virt. eigenvalues --    0.39741   0.41122   0.41541   0.43417   0.43703
 Alpha virt. eigenvalues --    0.44388   0.45309   0.46128   0.46446   0.47030
 Alpha virt. eigenvalues --    0.47619   0.48151   0.48281   0.49592   0.49818
 Alpha virt. eigenvalues --    0.50443   0.51194   0.52129   0.53150   0.53623
 Alpha virt. eigenvalues --    0.54351   0.55939   0.57200   0.57768   0.59427
 Alpha virt. eigenvalues --    0.60384   0.61556   0.62043   0.64641   0.69698
 Alpha virt. eigenvalues --    0.69921   0.72070   0.72378   0.74088   0.75186
 Alpha virt. eigenvalues --    0.75997   0.82444   0.84095   0.85588   0.85829
 Alpha virt. eigenvalues --    0.87655   0.93487   0.94352   0.94785   0.97123
 Alpha virt. eigenvalues --    0.98349   0.99361   0.99453   1.00540   1.02066
 Alpha virt. eigenvalues --    1.03688   1.04530   1.06231   1.07108   1.07698
 Alpha virt. eigenvalues --    1.10274   1.16389   1.18850   1.19160   1.22072
 Alpha virt. eigenvalues --    1.23605   1.24583   1.27503   1.31362   1.31406
 Alpha virt. eigenvalues --    1.32623   1.34654   1.37955   1.40440   1.41403
 Alpha virt. eigenvalues --    1.44511   1.49779   1.58198   1.63265   1.64775
 Alpha virt. eigenvalues --    1.69549   1.75830   1.77977   1.78691   1.79598
 Alpha virt. eigenvalues --    1.80715   1.82333   1.85817   1.86338   1.87108
 Alpha virt. eigenvalues --    1.89880   1.90306   1.90548   1.91080   1.91704
 Alpha virt. eigenvalues --    1.93413   2.12350   2.13950   2.15625   2.16168
 Alpha virt. eigenvalues --    2.16611   2.17555   2.19081   2.19762   2.20619
 Alpha virt. eigenvalues --    2.21891   2.29735   2.33253   2.34679   2.35039
 Alpha virt. eigenvalues --    2.37961   2.47951   2.49729   2.54005   2.54365
 Alpha virt. eigenvalues --    2.55318   2.64380   2.73795   2.74339   2.78032
 Alpha virt. eigenvalues --    2.82223   2.95374   3.29784   3.30390   3.31300
 Alpha virt. eigenvalues --    3.31648   3.33150   3.33682   3.35152   3.35867
 Alpha virt. eigenvalues --    3.36419   3.38263   3.39311   3.41245   3.42450
 Alpha virt. eigenvalues --    3.43480   3.46748   3.67032   3.68321   3.71812
 Alpha virt. eigenvalues --    3.72730   3.73738   3.89593   3.89809   3.93638
 Alpha virt. eigenvalues --    3.94259   3.94358
          Condensed to atoms (all electrons):
               1          2          3          4          5          6
     1  O    7.976419   0.378553   0.255016  -0.001101  -0.013507  -0.001521
     2  H    0.378553   0.560308  -0.116092   0.002735  -0.002435  -0.000412
     3  H    0.255016  -0.116092   0.592789  -0.000034   0.003985  -0.000181
     4  H   -0.001101   0.002735  -0.000034   0.562853  -0.000398  -0.000412
     5  O   -0.013507  -0.002435   0.003985  -0.000398   7.824721   0.371105
     6  H   -0.001521  -0.000412  -0.000181  -0.000412   0.371105   0.587778
     7  H    0.002603   0.000031   0.000366  -0.000193   0.298842  -0.102673
     8  O   -0.015376  -0.000235   0.002562   0.004148  -0.006856  -0.000977
     9  O   -0.025002   0.008703   0.003103   0.363313  -0.007000   0.000160
    10  H    0.010895   0.001863   0.001755   0.002302  -0.000614  -0.000477
    11  H    0.001346  -0.000247   0.000393   0.000657  -0.000003   0.000209
    12  H    0.003133   0.000860   0.000849  -0.119290   0.002165   0.000303
    13  O   -0.008716  -0.000872  -0.000594   0.001093  -0.033906   0.013025
    14  H   -0.000689  -0.000184  -0.000054  -0.000166   0.002063   0.001464
    15  H   -0.000508  -0.000023   0.000041  -0.000043   0.000416   0.001255
    16  Na  -0.102553  -0.043595   0.027279  -0.033773  -0.080015  -0.043247
               7          8          9         10         11         12
     1  O    0.002603  -0.015376  -0.025002   0.010895   0.001346   0.003133
     2  H    0.000031  -0.000235   0.008703   0.001863  -0.000247   0.000860
     3  H    0.000366   0.002562   0.003103   0.001755   0.000393   0.000849
     4  H   -0.000193   0.004148   0.363313   0.002302   0.000657  -0.119290
     5  O    0.298842  -0.006856  -0.007000  -0.000614  -0.000003   0.002165
     6  H   -0.102673  -0.000977   0.000160  -0.000477   0.000209   0.000303
     7  H    0.585453  -0.000360   0.000540  -0.000046   0.000088   0.000266
     8  O   -0.000360   7.886856  -0.026999   0.386948   0.261568   0.003508
     9  O    0.000540  -0.026999   7.947972  -0.005204   0.004619   0.262907
    10  H   -0.000046   0.386948  -0.005204   0.575660  -0.126262  -0.000213
    11  H    0.000088   0.261568   0.004619  -0.126262   0.611056   0.000837
    12  H    0.000266   0.003508   0.262907  -0.000213   0.000837   0.603203
    13  O    0.002163  -0.008971  -0.017177  -0.002160   0.003743  -0.000017
    14  H    0.000428   0.000500   0.001029  -0.000625   0.000384   0.000133
    15  H    0.000541   0.000197   0.002547  -0.000252   0.000205  -0.000046
    16  Na   0.020867  -0.076975  -0.086926  -0.048589   0.028637   0.028255
              13         14         15         16
     1  O   -0.008716  -0.000689  -0.000508  -0.102553
     2  H   -0.000872  -0.000184  -0.000023  -0.043595
     3  H   -0.000594  -0.000054   0.000041   0.027279
     4  H    0.001093  -0.000166  -0.000043  -0.033773
     5  O   -0.033906   0.002063   0.000416  -0.080015
     6  H    0.013025   0.001464   0.001255  -0.043247
     7  H    0.002163   0.000428   0.000541   0.020867
     8  O   -0.008971   0.000500   0.000197  -0.076975
     9  O   -0.017177   0.001029   0.002547  -0.086926
    10  H   -0.002160  -0.000625  -0.000252  -0.048589
    11  H    0.003743   0.000384   0.000205   0.028637
    12  H   -0.000017   0.000133  -0.000046   0.028255
    13  O    7.927622   0.304680   0.304136  -0.084140
    14  H    0.304680   0.570542  -0.094664   0.009804
    15  H    0.304136  -0.094664   0.566117   0.009552
    16  Na  -0.084140   0.009804   0.009552  10.492507
 Mulliken charges:
               1
     1  O   -0.458991
     2  H    0.211044
     3  H    0.228819
     4  H    0.218309
     5  O   -0.358562
     6  H    0.174601
     7  H    0.191084
     8  O   -0.409538
     9  O   -0.426586
    10  H    0.205020
    11  H    0.212770
    12  H    0.213147
    13  O   -0.399910
    14  H    0.205354
    15  H    0.210529
    16  Na   0.982912
 Sum of Mulliken charges =   1.00000
 Mulliken charges with hydrogens summed into heavy atoms:
               1
     1  O   -0.019129
     5  O    0.007122
     8  O    0.008252
     9  O    0.004870
    13  O    0.015973
    16  Na   0.982912
 Electronic spatial extent (au):  <R**2>=           1157.3525
 Charge=              1.0000 electrons
 Dipole moment (field-independent basis, Debye):
    X=             -0.4910    Y=              0.7914    Z=              0.1315  Tot=              0.9406
 Quadrupole moment (field-independent basis, Debye-Ang):
   XX=             -9.2705   YY=            -15.1763   ZZ=            -24.6012
   XY=             -2.5848   XZ=              0.1623   YZ=             -0.0272
 Traceless Quadrupole moment (field-independent basis, Debye-Ang):
   XX=              7.0789   YY=              1.1730   ZZ=             -8.2519
   XY=             -2.5848   XZ=              0.1623   YZ=             -0.0272
 Octapole moment (field-independent basis, Debye-Ang**2):
  XXX=            -27.2563  YYY=            -14.9794  ZZZ=             10.1755  XYY=             -9.2960
  XXY=              0.4498  XXZ=             -2.2217  XZZ=             15.9215  YZZ=             19.5306
  YYZ=             -7.0703  XYZ=              0.6536
 Hexadecapole moment (field-independent basis, Debye-Ang**3):
 XXXX=           -487.1383 YYYY=           -240.7924 ZZZZ=           -135.1053 XXXY=            -23.3797
 XXXZ=             -1.6214 YYYX=            -14.1189 YYYZ=             -1.8739 ZZZX=             11.3297
 ZZZY=              2.0609 XXYY=            -43.6066 XXZZ=           -103.9971 YYZZ=            -67.4444
 XXYZ=             -3.1385 YYXZ=            -10.8094 ZZXY=              7.6830
 N-N= 3.019679487568D+02 E-N=-1.895852584935D+03  KE= 5.412815979297D+02
 SC-PCM: Using the SCF Density.
 SC-PCM: The equilibrium contribution to the free energy is   -0.077869646 a.u.
 SC-PCM: The total energy including the PCM contribution is      -544.542191579 a.u.
 SC-PCM: Erms=  0.31725D-05 Emax=  0.15893D-04 Qconv=  0.10000D-06
 SC-PCM: Iterating to achieve self-consistent PCM reaction field, IExtIt=   3.
 Standard basis: Aug-CC-pVDZ (5D, 7F)
 There are   244 symmetry adapted cartesian basis functions of A   symmetry.
 There are   232 symmetry adapted basis functions of A   symmetry.
   232 basis functions,   406 primitive gaussians,   244 cartesian basis functions
    30 alpha electrons       30 beta electrons
       nuclear repulsion energy       306.2934638762 Hartrees.
 NAtoms=   16 NActive=   16 NUniq=   16 SFac= 1.00D+00 NAtFMM=   60 NAOKFM=F Big=F
 Integral buffers will be    131072 words long.
 Raffenetti 2 integral format.
 Two-electron integral symmetry is turned on.
 Nuclei-solvent charges/DBFs interaction =        -4.3190372702 a.u.
 Nuclear repulsion after self-consistent solvent charges =      301.9744266060 Hartrees.
 Nuclear repulsion after empirical dispersion term =      301.9648614893 Hartrees.
 One-electron integrals computed using PRISM.
 NBasis=   232 RedAO= T EigKep=  1.91D-04  NBF=   232
 NBsUse=   232 1.00D-06 EigRej= -1.00D+00 NBFU=   232
 Initial guess from the checkpoint file:  "sim007_type3_coord-5_5-0-0_10C_b1_id81786_step4900_2.chk"
 SCF N**3 symmetry information disabled.
 B after Tr=     0.000000    0.000000    0.000000
         Rot=    1.000000    0.000000    0.000000    0.000000 Ang=   0.00 deg.
 Requested convergence on RMS density matrix=1.00D-08 within 500 cycles.
 Requested convergence on MAX density matrix=1.00D-06.
 Requested convergence on             energy=1.00D-06.
 No special actions if energy rises.
 SCF Done:  E(RB3LYP) =  -544.542189688     A.U. after    5 cycles
            NFock=  5  Conv=0.62D-08     -V/T= 2.0060

 **********************************************************************

            Population analysis using the SCF Density.

 **********************************************************************

 Orbital symmetries:
       Occupied  (A) (A) (A) (A) (A) (A) (A) (A) (A) (A) (A) (A)
                 (A) (A) (A) (A) (A) (A) (A) (A) (A) (A) (A) (A)
                 (A) (A) (A) (A) (A) (A)
       Virtual   (A) (A) (A) (A) (A) (A) (A) (A) (A) (A) (A) (A)
                 (A) (A) (A) (A) (A) (A) (A) (A) (A) (A) (A) (A)
                 (A) (A) (A) (A) (A) (A) (A) (A) (A) (A) (A) (A)
                 (A) (A) (A) (A) (A) (A) (A) (A) (A) (A) (A) (A)
                 (A) (A) (A) (A) (A) (A) (A) (A) (A) (A) (A) (A)
                 (A) (A) (A) (A) (A) (A) (A) (A) (A) (A) (A) (A)
                 (A) (A) (A) (A) (A) (A) (A) (A) (A) (A) (A) (A)
                 (A) (A) (A) (A) (A) (A) (A) (A) (A) (A) (A) (A)
                 (A) (A) (A) (A) (A) (A) (A) (A) (A) (A) (A) (A)
                 (A) (A) (A) (A) (A) (A) (A) (A) (A) (A) (A) (A)
                 (A) (A) (A) (A) (A) (A) (A) (A) (A) (A) (A) (A)
                 (A) (A) (A) (A) (A) (A) (A) (A) (A) (A) (A) (A)
                 (A) (A) (A) (A) (A) (A) (A) (A) (A) (A) (A) (A)
                 (A) (A) (A) (A) (A) (A) (A) (A) (A) (A) (A) (A)
                 (A) (A) (A) (A) (A) (A) (A) (A) (A) (A) (A) (A)
                 (A) (A) (A) (A) (A) (A) (A) (A) (A) (A) (A) (A)
                 (A) (A) (A) (A) (A) (A) (A) (A) (A) (A)
 The electronic state is 1-A.
 Alpha  occ. eigenvalues --  -38.43655 -19.17643 -19.17393 -19.17352 -19.17281
 Alpha  occ. eigenvalues --  -19.17220  -2.17117  -1.10518  -1.10393  -1.10381
 Alpha  occ. eigenvalues --   -1.03967  -1.03757  -1.03367  -1.03282  -1.03146
 Alpha  occ. eigenvalues --   -0.56184  -0.55379  -0.55214  -0.55072  -0.54991
 Alpha  occ. eigenvalues --   -0.43415  -0.42505  -0.41996  -0.41810  -0.41781
 Alpha  occ. eigenvalues --   -0.34485  -0.34280  -0.34147  -0.34064  -0.34057
 Alpha virt. eigenvalues --   -0.03698  -0.01687  -0.00989  -0.00461   0.01255
 Alpha virt. eigenvalues --    0.01835   0.01857   0.01963   0.02076   0.03435
 Alpha virt. eigenvalues --    0.03626   0.03958   0.04106   0.05602   0.05980
 Alpha virt. eigenvalues --    0.06268   0.06633   0.07701   0.11059   0.12019
 Alpha virt. eigenvalues --    0.12122   0.12327   0.12633   0.13007   0.13256
 Alpha virt. eigenvalues --    0.13986   0.14448   0.15033   0.15223   0.15519
 Alpha virt. eigenvalues --    0.15958   0.16181   0.16395   0.16992   0.17509
 Alpha virt. eigenvalues --    0.18053   0.18401   0.19555   0.20244   0.20543
 Alpha virt. eigenvalues --    0.21439   0.22470   0.24416   0.25234   0.25843
 Alpha virt. eigenvalues --    0.26166   0.26666   0.27991   0.29562   0.30007
 Alpha virt. eigenvalues --    0.31341   0.31805   0.32799   0.34408   0.35301
 Alpha virt. eigenvalues --    0.35882   0.36531   0.37782   0.38654   0.39632
 Alpha virt. eigenvalues --    0.39745   0.41126   0.41544   0.43419   0.43707
 Alpha virt. eigenvalues --    0.44391   0.45311   0.46131   0.46449   0.47034
 Alpha virt. eigenvalues --    0.47623   0.48155   0.48284   0.49596   0.49821
 Alpha virt. eigenvalues --    0.50447   0.51198   0.52132   0.53153   0.53626
 Alpha virt. eigenvalues --    0.54355   0.55944   0.57204   0.57771   0.59432
 Alpha virt. eigenvalues --    0.60387   0.61559   0.62045   0.64644   0.69702
 Alpha virt. eigenvalues --    0.69923   0.72073   0.72384   0.74092   0.75191
 Alpha virt. eigenvalues --    0.76001   0.82447   0.84100   0.85593   0.85834
 Alpha virt. eigenvalues --    0.87660   0.93493   0.94358   0.94791   0.97127
 Alpha virt. eigenvalues --    0.98354   0.99367   0.99458   1.00544   1.02071
 Alpha virt. eigenvalues --    1.03694   1.04536   1.06237   1.07113   1.07704
 Alpha virt. eigenvalues --    1.10278   1.16395   1.18855   1.19165   1.22077
 Alpha virt. eigenvalues --    1.23610   1.24588   1.27509   1.31368   1.31412
 Alpha virt. eigenvalues --    1.32627   1.34661   1.37960   1.40446   1.41409
 Alpha virt. eigenvalues --    1.44517   1.49786   1.58204   1.63273   1.64781
 Alpha virt. eigenvalues --    1.69555   1.75837   1.77981   1.78695   1.79602
 Alpha virt. eigenvalues --    1.80719   1.82337   1.85823   1.86342   1.87113
 Alpha virt. eigenvalues --    1.89884   1.90309   1.90551   1.91086   1.91709
 Alpha virt. eigenvalues --    1.93416   2.12356   2.13953   2.15630   2.16173
 Alpha virt. eigenvalues --    2.16615   2.17559   2.19084   2.19767   2.20622
 Alpha virt. eigenvalues --    2.21894   2.29742   2.33256   2.34681   2.35043
 Alpha virt. eigenvalues --    2.37964   2.47958   2.49733   2.54010   2.54369
 Alpha virt. eigenvalues --    2.55322   2.64386   2.73799   2.74346   2.78036
 Alpha virt. eigenvalues --    2.82230   2.95383   3.29792   3.30395   3.31305
 Alpha virt. eigenvalues --    3.31653   3.33155   3.33687   3.35157   3.35873
 Alpha virt. eigenvalues --    3.36424   3.38270   3.39316   3.41251   3.42456
 Alpha virt. eigenvalues --    3.43486   3.46752   3.67040   3.68326   3.71817
 Alpha virt. eigenvalues --    3.72734   3.73742   3.89599   3.89817   3.93643
 Alpha virt. eigenvalues --    3.94263   3.94363
          Condensed to atoms (all electrons):
               1          2          3          4          5          6
     1  O    7.976484   0.378558   0.254991  -0.001096  -0.013514  -0.001521
     2  H    0.378558   0.560331  -0.116093   0.002735  -0.002437  -0.000412
     3  H    0.254991  -0.116093   0.592861  -0.000035   0.003986  -0.000181
     4  H   -0.001096   0.002735  -0.000035   0.562887  -0.000399  -0.000412
     5  O   -0.013514  -0.002437   0.003986  -0.000399   7.824842   0.371082
     6  H   -0.001521  -0.000412  -0.000181  -0.000412   0.371082   0.587809
     7  H    0.002603   0.000031   0.000366  -0.000193   0.298821  -0.102669
     8  O   -0.015373  -0.000234   0.002562   0.004150  -0.006859  -0.000977
     9  O   -0.024995   0.008706   0.003105   0.363309  -0.007005   0.000159
    10  H    0.010895   0.001865   0.001755   0.002304  -0.000615  -0.000478
    11  H    0.001349  -0.000248   0.000393   0.000656  -0.000004   0.000209
    12  H    0.003131   0.000859   0.000848  -0.119283   0.002164   0.000303
    13  O   -0.008716  -0.000872  -0.000594   0.001091  -0.033920   0.013026
    14  H   -0.000689  -0.000185  -0.000054  -0.000166   0.002066   0.001465
    15  H   -0.000508  -0.000023   0.000041  -0.000043   0.000418   0.001255
    16  Na  -0.102619  -0.043600   0.027289  -0.033773  -0.080114  -0.043230
               7          8          9         10         11         12
     1  O    0.002603  -0.015373  -0.024995   0.010895   0.001349   0.003131
     2  H    0.000031  -0.000234   0.008706   0.001865  -0.000248   0.000859
     3  H    0.000366   0.002562   0.003105   0.001755   0.000393   0.000848
     4  H   -0.000193   0.004150   0.363309   0.002304   0.000656  -0.119283
     5  O    0.298821  -0.006859  -0.007005  -0.000615  -0.000004   0.002164
     6  H   -0.102669  -0.000977   0.000159  -0.000478   0.000209   0.000303
     7  H    0.585573  -0.000360   0.000540  -0.000045   0.000088   0.000266
     8  O   -0.000360   7.886928  -0.026995   0.386940   0.261548   0.003510
     9  O    0.000540  -0.026995   7.947995  -0.005200   0.004618   0.262896
    10  H   -0.000045   0.386940  -0.005200   0.575718  -0.126258  -0.000214
    11  H    0.000088   0.261548   0.004618  -0.126258   0.611112   0.000836
    12  H    0.000266   0.003510   0.262896  -0.000214   0.000836   0.603253
    13  O    0.002167  -0.008965  -0.017167  -0.002161   0.003742  -0.000017
    14  H    0.000428   0.000501   0.001029  -0.000625   0.000385   0.000133
    15  H    0.000541   0.000198   0.002546  -0.000253   0.000205  -0.000047
    16  Na   0.020876  -0.077045  -0.086970  -0.048595   0.028643   0.028257
              13         14         15         16
     1  O   -0.008716  -0.000689  -0.000508  -0.102619
     2  H   -0.000872  -0.000185  -0.000023  -0.043600
     3  H   -0.000594  -0.000054   0.000041   0.027289
     4  H    0.001091  -0.000166  -0.000043  -0.033773
     5  O   -0.033920   0.002066   0.000418  -0.080114
     6  H    0.013026   0.001465   0.001255  -0.043230
     7  H    0.002167   0.000428   0.000541   0.020876
     8  O   -0.008965   0.000501   0.000198  -0.077045
     9  O   -0.017167   0.001029   0.002546  -0.086970
    10  H   -0.002161  -0.000625  -0.000253  -0.048595
    11  H    0.003742   0.000385   0.000205   0.028643
    12  H   -0.000017   0.000133  -0.000047   0.028257
    13  O    7.927755   0.304657   0.304120  -0.084215
    14  H    0.304657   0.570585  -0.094657   0.009809
    15  H    0.304120  -0.094657   0.566159   0.009556
    16  Na  -0.084215   0.009809   0.009556  10.492402
 Mulliken charges:
               1
     1  O   -0.458981
     2  H    0.211019
     3  H    0.228760
     4  H    0.218268
     5  O   -0.358512
     6  H    0.174572
     7  H    0.190966
     8  O   -0.409527
     9  O   -0.426571
    10  H    0.204968
    11  H    0.212727
    12  H    0.213103
    13  O   -0.399930
    14  H    0.205320
    15  H    0.210493
    16  Na   0.983325
 Sum of Mulliken charges =   1.00000
 Mulliken charges with hydrogens summed into heavy atoms:
               1
     1  O   -0.019201
     5  O    0.007026
     8  O    0.008168
     9  O    0.004800
    13  O    0.015882
    16  Na   0.983325
 Electronic spatial extent (au):  <R**2>=           1157.3691
 Charge=              1.0000 electrons
 Dipole moment (field-independent basis, Debye):
    X=             -0.4924    Y=              0.7919    Z=              0.1313  Tot=              0.9417
 Quadrupole moment (field-independent basis, Debye-Ang):
   XX=             -9.2864   YY=            -15.1814   ZZ=            -24.6024
   XY=             -2.5865   XZ=              0.1623   YZ=             -0.0272
 Traceless Quadrupole moment (field-independent basis, Debye-Ang):
   XX=              7.0703   YY=              1.1753   ZZ=             -8.2456
   XY=             -2.5865   XZ=              0.1623   YZ=             -0.0272
 Octapole moment (field-independent basis, Debye-Ang**2):
  XXX=            -27.2551  YYY=            -14.9727  ZZZ=             10.1725  XYY=             -9.2919
  XXY=              0.4503  XXZ=             -2.2215  XZZ=             15.9148  YZZ=             19.5291
  YYZ=             -7.0690  XYZ=              0.6535
 Hexadecapole moment (field-independent basis, Debye-Ang**3):
 XXXX=           -487.2989 YYYY=           -240.8369 ZZZZ=           -135.1168 XXXY=            -23.3810
 XXXZ=             -1.6191 YYYX=            -14.1306 YYYZ=             -1.8731 ZZZX=             11.3245
 ZZZY=              2.0602 XXYY=            -43.6660 XXZZ=           -104.0211 YYZZ=            -67.4506
 XXYZ=             -3.1380 YYXZ=            -10.8055 ZZXY=              7.6772
 N-N= 3.019648614893D+02 E-N=-1.895850623525D+03  KE= 5.412816487889D+02
 SC-PCM: Using the SCF Density.
 SC-PCM: The equilibrium contribution to the free energy is   -0.077873543 a.u.
 SC-PCM: The total energy including the PCM contribution is      -544.542191641 a.u.
 SC-PCM: Erms=  0.57956D-06 Emax=  0.27763D-05 Qconv=  0.10000D-06
 SC-PCM: Iterating to achieve self-consistent PCM reaction field, IExtIt=   4.
 Standard basis: Aug-CC-pVDZ (5D, 7F)
 There are   244 symmetry adapted cartesian basis functions of A   symmetry.
 There are   232 symmetry adapted basis functions of A   symmetry.
   232 basis functions,   406 primitive gaussians,   244 cartesian basis functions
    30 alpha electrons       30 beta electrons
       nuclear repulsion energy       306.2934638762 Hartrees.
 NAtoms=   16 NActive=   16 NUniq=   16 SFac= 1.00D+00 NAtFMM=   60 NAOKFM=F Big=F
 Integral buffers will be    131072 words long.
 Raffenetti 2 integral format.
 Two-electron integral symmetry is turned on.
 Nuclei-solvent charges/DBFs interaction =        -4.3195876558 a.u.
 Nuclear repulsion after self-consistent solvent charges =      301.9738762204 Hartrees.
 Nuclear repulsion after empirical dispersion term =      301.9643111037 Hartrees.
 One-electron integrals computed using PRISM.
 NBasis=   232 RedAO= T EigKep=  1.91D-04  NBF=   232
 NBsUse=   232 1.00D-06 EigRej= -1.00D+00 NBFU=   232
 Initial guess from the checkpoint file:  "sim007_type3_coord-5_5-0-0_10C_b1_id81786_step4900_2.chk"
 SCF N**3 symmetry information disabled.
 B after Tr=     0.000000    0.000000    0.000000
         Rot=    1.000000    0.000000    0.000000    0.000000 Ang=   0.00 deg.
 Requested convergence on RMS density matrix=1.00D-08 within 500 cycles.
 Requested convergence on MAX density matrix=1.00D-06.
 Requested convergence on             energy=1.00D-06.
 No special actions if energy rises.
 SCF Done:  E(RB3LYP) =  -544.542191299     A.U. after    5 cycles
            NFock=  5  Conv=0.11D-08     -V/T= 2.0060

 **********************************************************************

            Population analysis using the SCF Density.

 **********************************************************************

 Orbital symmetries:
       Occupied  (A) (A) (A) (A) (A) (A) (A) (A) (A) (A) (A) (A)
                 (A) (A) (A) (A) (A) (A) (A) (A) (A) (A) (A) (A)
                 (A) (A) (A) (A) (A) (A)
       Virtual   (A) (A) (A) (A) (A) (A) (A) (A) (A) (A) (A) (A)
                 (A) (A) (A) (A) (A) (A) (A) (A) (A) (A) (A) (A)
                 (A) (A) (A) (A) (A) (A) (A) (A) (A) (A) (A) (A)
                 (A) (A) (A) (A) (A) (A) (A) (A) (A) (A) (A) (A)
                 (A) (A) (A) (A) (A) (A) (A) (A) (A) (A) (A) (A)
                 (A) (A) (A) (A) (A) (A) (A) (A) (A) (A) (A) (A)
                 (A) (A) (A) (A) (A) (A) (A) (A) (A) (A) (A) (A)
                 (A) (A) (A) (A) (A) (A) (A) (A) (A) (A) (A) (A)
                 (A) (A) (A) (A) (A) (A) (A) (A) (A) (A) (A) (A)
                 (A) (A) (A) (A) (A) (A) (A) (A) (A) (A) (A) (A)
                 (A) (A) (A) (A) (A) (A) (A) (A) (A) (A) (A) (A)
                 (A) (A) (A) (A) (A) (A) (A) (A) (A) (A) (A) (A)
                 (A) (A) (A) (A) (A) (A) (A) (A) (A) (A) (A) (A)
                 (A) (A) (A) (A) (A) (A) (A) (A) (A) (A) (A) (A)
                 (A) (A) (A) (A) (A) (A) (A) (A) (A) (A) (A) (A)
                 (A) (A) (A) (A) (A) (A) (A) (A) (A) (A) (A) (A)
                 (A) (A) (A) (A) (A) (A) (A) (A) (A) (A)
 The electronic state is 1-A.
 Alpha  occ. eigenvalues --  -38.43652 -19.17642 -19.17392 -19.17351 -19.17280
 Alpha  occ. eigenvalues --  -19.17219  -2.17115  -1.10516  -1.10390  -1.10379
 Alpha  occ. eigenvalues --   -1.03967  -1.03755  -1.03366  -1.03281  -1.03145
 Alpha  occ. eigenvalues --   -0.56183  -0.55378  -0.55212  -0.55072  -0.54990
 Alpha  occ. eigenvalues --   -0.43414  -0.42504  -0.41995  -0.41809  -0.41780
 Alpha  occ. eigenvalues --   -0.34484  -0.34279  -0.34146  -0.34063  -0.34056
 Alpha virt. eigenvalues --   -0.03697  -0.01687  -0.00989  -0.00461   0.01255
 Alpha virt. eigenvalues --    0.01835   0.01857   0.01963   0.02076   0.03435
 Alpha virt. eigenvalues --    0.03626   0.03958   0.04106   0.05602   0.05980
 Alpha virt. eigenvalues --    0.06268   0.06634   0.07701   0.11059   0.12019
 Alpha virt. eigenvalues --    0.12122   0.12328   0.12634   0.13008   0.13257
 Alpha virt. eigenvalues --    0.13987   0.14448   0.15033   0.15224   0.15520
 Alpha virt. eigenvalues --    0.15958   0.16181   0.16395   0.16993   0.17509
 Alpha virt. eigenvalues --    0.18053   0.18402   0.19555   0.20244   0.20544
 Alpha virt. eigenvalues --    0.21440   0.22471   0.24417   0.25234   0.25844
 Alpha virt. eigenvalues --    0.26167   0.26666   0.27992   0.29563   0.30008
 Alpha virt. eigenvalues --    0.31342   0.31807   0.32801   0.34409   0.35301
 Alpha virt. eigenvalues --    0.35883   0.36533   0.37783   0.38654   0.39633
 Alpha virt. eigenvalues --    0.39746   0.41127   0.41545   0.43420   0.43708
 Alpha virt. eigenvalues --    0.44392   0.45311   0.46132   0.46449   0.47034
 Alpha virt. eigenvalues --    0.47624   0.48156   0.48285   0.49597   0.49821
 Alpha virt. eigenvalues --    0.50448   0.51199   0.52133   0.53153   0.53626
 Alpha virt. eigenvalues --    0.54356   0.55945   0.57205   0.57772   0.59433
 Alpha virt. eigenvalues --    0.60387   0.61559   0.62045   0.64644   0.69703
 Alpha virt. eigenvalues --    0.69923   0.72073   0.72385   0.74092   0.75192
 Alpha virt. eigenvalues --    0.76002   0.82448   0.84101   0.85594   0.85835
 Alpha virt. eigenvalues --    0.87661   0.93494   0.94359   0.94792   0.97128
 Alpha virt. eigenvalues --    0.98355   0.99368   0.99459   1.00545   1.02072
 Alpha virt. eigenvalues --    1.03695   1.04537   1.06238   1.07114   1.07705
 Alpha virt. eigenvalues --    1.10279   1.16397   1.18856   1.19166   1.22078
 Alpha virt. eigenvalues --    1.23611   1.24589   1.27510   1.31369   1.31413
 Alpha virt. eigenvalues --    1.32628   1.34662   1.37961   1.40447   1.41410
 Alpha virt. eigenvalues --    1.44519   1.49787   1.58205   1.63274   1.64782
 Alpha virt. eigenvalues --    1.69556   1.75838   1.77982   1.78695   1.79603
 Alpha virt. eigenvalues --    1.80720   1.82338   1.85824   1.86342   1.87113
 Alpha virt. eigenvalues --    1.89884   1.90309   1.90551   1.91087   1.91710
 Alpha virt. eigenvalues --    1.93417   2.12357   2.13954   2.15630   2.16173
 Alpha virt. eigenvalues --    2.16616   2.17560   2.19085   2.19768   2.20623
 Alpha virt. eigenvalues --    2.21895   2.29743   2.33256   2.34681   2.35043
 Alpha virt. eigenvalues --    2.37965   2.47959   2.49734   2.54011   2.54370
 Alpha virt. eigenvalues --    2.55323   2.64387   2.73800   2.74347   2.78036
 Alpha virt. eigenvalues --    2.82231   2.95384   3.29793   3.30396   3.31305
 Alpha virt. eigenvalues --    3.31654   3.33156   3.33688   3.35158   3.35874
 Alpha virt. eigenvalues --    3.36425   3.38271   3.39317   3.41252   3.42457
 Alpha virt. eigenvalues --    3.43487   3.46753   3.67042   3.68327   3.71818
 Alpha virt. eigenvalues --    3.72735   3.73743   3.89600   3.89819   3.93643
 Alpha virt. eigenvalues --    3.94264   3.94363
          Condensed to atoms (all electrons):
               1          2          3          4          5          6
     1  O    7.976496   0.378560   0.254985  -0.001095  -0.013515  -0.001522
     2  H    0.378560   0.560339  -0.116093   0.002735  -0.002438  -0.000413
     3  H    0.254985  -0.116093   0.592872  -0.000036   0.003986  -0.000181
     4  H   -0.001095   0.002735  -0.000036   0.562896  -0.000399  -0.000412
     5  O   -0.013515  -0.002438   0.003986  -0.000399   7.824861   0.371078
     6  H   -0.001522  -0.000413  -0.000181  -0.000412   0.371078   0.587818
     7  H    0.002603   0.000031   0.000366  -0.000193   0.298817  -0.102668
     8  O   -0.015373  -0.000234   0.002562   0.004150  -0.006859  -0.000977
     9  O   -0.024993   0.008706   0.003106   0.363309  -0.007006   0.000159
    10  H    0.010896   0.001865   0.001755   0.002304  -0.000615  -0.000478
    11  H    0.001349  -0.000248   0.000393   0.000656  -0.000004   0.000209
    12  H    0.003131   0.000859   0.000848  -0.119282   0.002164   0.000303
    13  O   -0.008716  -0.000872  -0.000594   0.001091  -0.033922   0.013026
    14  H   -0.000689  -0.000185  -0.000054  -0.000167   0.002067   0.001465
    15  H   -0.000508  -0.000023   0.000041  -0.000043   0.000418   0.001255
    16  Na  -0.102632  -0.043601   0.027290  -0.033773  -0.080130  -0.043227
               7          8          9         10         11         12
     1  O    0.002603  -0.015373  -0.024993   0.010896   0.001349   0.003131
     2  H    0.000031  -0.000234   0.008706   0.001865  -0.000248   0.000859
     3  H    0.000366   0.002562   0.003106   0.001755   0.000393   0.000848
     4  H   -0.000193   0.004150   0.363309   0.002304   0.000656  -0.119282
     5  O    0.298817  -0.006859  -0.007006  -0.000615  -0.000004   0.002164
     6  H   -0.102668  -0.000977   0.000159  -0.000478   0.000209   0.000303
     7  H    0.585591  -0.000360   0.000540  -0.000045   0.000088   0.000266
     8  O   -0.000360   7.886939  -0.026994   0.386940   0.261544   0.003510
     9  O    0.000540  -0.026994   7.948000  -0.005199   0.004618   0.262893
    10  H   -0.000045   0.386940  -0.005199   0.575731  -0.126258  -0.000214
    11  H    0.000088   0.261544   0.004618  -0.126258   0.611120   0.000836
    12  H    0.000266   0.003510   0.262893  -0.000214   0.000836   0.603261
    13  O    0.002168  -0.008964  -0.017165  -0.002162   0.003742  -0.000017
    14  H    0.000428   0.000501   0.001028  -0.000625   0.000385   0.000133
    15  H    0.000541   0.000198   0.002546  -0.000253   0.000205  -0.000047
    16  Na   0.020878  -0.077058  -0.086978  -0.048597   0.028644   0.028258
              13         14         15         16
     1  O   -0.008716  -0.000689  -0.000508  -0.102632
     2  H   -0.000872  -0.000185  -0.000023  -0.043601
     3  H   -0.000594  -0.000054   0.000041   0.027290
     4  H    0.001091  -0.000167  -0.000043  -0.033773
     5  O   -0.033922   0.002067   0.000418  -0.080130
     6  H    0.013026   0.001465   0.001255  -0.043227
     7  H    0.002168   0.000428   0.000541   0.020878
     8  O   -0.008964   0.000501   0.000198  -0.077058
     9  O   -0.017165   0.001028   0.002546  -0.086978
    10  H   -0.002162  -0.000625  -0.000253  -0.048597
    11  H    0.003742   0.000385   0.000205   0.028644
    12  H   -0.000017   0.000133  -0.000047   0.028258
    13  O    7.927779   0.304652   0.304116  -0.084229
    14  H    0.304652   0.570594  -0.094656   0.009810
    15  H    0.304116  -0.094656   0.566167   0.009557
    16  Na  -0.084229   0.009810   0.009557  10.492385
 Mulliken charges:
               1
     1  O   -0.458978
     2  H    0.211010
     3  H    0.228753
     4  H    0.218258
     5  O   -0.358502
     6  H    0.174563
     7  H    0.190949
     8  O   -0.409525
     9  O   -0.426569
    10  H    0.204955
    11  H    0.212722
    12  H    0.213097
    13  O   -0.399932
    14  H    0.205312
    15  H    0.210486
    16  Na   0.983402
 Sum of Mulliken charges =   1.00000
 Mulliken charges with hydrogens summed into heavy atoms:
               1
     1  O   -0.019215
     5  O    0.007009
     8  O    0.008152
     9  O    0.004786
    13  O    0.015866
    16  Na   0.983402
 Electronic spatial extent (au):  <R**2>=           1157.3721
 Charge=              1.0000 electrons
 Dipole moment (field-independent basis, Debye):
    X=             -0.4926    Y=              0.7919    Z=              0.1312  Tot=              0.9418
 Quadrupole moment (field-independent basis, Debye-Ang):
   XX=             -9.2896   YY=            -15.1821   ZZ=            -24.6026
   XY=             -2.5867   XZ=              0.1622   YZ=             -0.0272
 Traceless Quadrupole moment (field-independent basis, Debye-Ang):
   XX=              7.0685   YY=              1.1760   ZZ=             -8.2445
   XY=             -2.5867   XZ=              0.1622   YZ=             -0.0272
 Octapole moment (field-independent basis, Debye-Ang**2):
  XXX=            -27.2552  YYY=            -14.9719  ZZZ=             10.1720  XYY=             -9.2913
  XXY=              0.4503  XXZ=             -2.2215  XZZ=             15.9135  YZZ=             19.5288
  YYZ=             -7.0689  XYZ=              0.6535
 Hexadecapole moment (field-independent basis, Debye-Ang**3):
 XXXX=           -487.3313 YYYY=           -240.8432 ZZZZ=           -135.1185 XXXY=            -23.3808
 XXXZ=             -1.6188 YYYX=            -14.1323 YYYZ=             -1.8729 ZZZX=             11.3235
 ZZZY=              2.0600 XXYY=            -43.6766 XXZZ=           -104.0257 YYZZ=            -67.4514
 XXYZ=             -3.1379 YYXZ=            -10.8049 ZZXY=              7.6762
 N-N= 3.019643111037D+02 E-N=-1.895850268311D+03  KE= 5.412816588907D+02
 SC-PCM: Using the SCF Density.
 SC-PCM: The equilibrium contribution to the free energy is   -0.077874230 a.u.
 SC-PCM: The total energy including the PCM contribution is      -544.542191643 a.u.
 SC-PCM: Erms=  0.11163D-06 Emax=  0.52427D-06 Qconv=  0.10000D-06
 SC-PCM: Iterating to achieve self-consistent PCM reaction field, IExtIt=   5.
 Standard basis: Aug-CC-pVDZ (5D, 7F)
 There are   244 symmetry adapted cartesian basis functions of A   symmetry.
 There are   232 symmetry adapted basis functions of A   symmetry.
   232 basis functions,   406 primitive gaussians,   244 cartesian basis functions
    30 alpha electrons       30 beta electrons
       nuclear repulsion energy       306.2934638762 Hartrees.
 NAtoms=   16 NActive=   16 NUniq=   16 SFac= 1.00D+00 NAtFMM=   60 NAOKFM=F Big=F
 Integral buffers will be    131072 words long.
 Raffenetti 2 integral format.
 Two-electron integral symmetry is turned on.
 Nuclei-solvent charges/DBFs interaction =        -4.3196889556 a.u.
 Nuclear repulsion after self-consistent solvent charges =      301.9737749206 Hartrees.
 Nuclear repulsion after empirical dispersion term =      301.9642098039 Hartrees.
 One-electron integrals computed using PRISM.
 NBasis=   232 RedAO= T EigKep=  1.91D-04  NBF=   232
 NBsUse=   232 1.00D-06 EigRej= -1.00D+00 NBFU=   232
 Initial guess from the checkpoint file:  "sim007_type3_coord-5_5-0-0_10C_b1_id81786_step4900_2.chk"
 SCF N**3 symmetry information disabled.
 B after Tr=     0.000000    0.000000    0.000000
         Rot=    1.000000    0.000000    0.000000    0.000000 Ang=   0.00 deg.
 Requested convergence on RMS density matrix=1.00D-08 within 500 cycles.
 Requested convergence on MAX density matrix=1.00D-06.
 Requested convergence on             energy=1.00D-06.
 No special actions if energy rises.
 SCF Done:  E(RB3LYP) =  -544.542191580     A.U. after    3 cycles
            NFock=  3  Conv=0.61D-08     -V/T= 2.0060

 **********************************************************************

            Population analysis using the SCF Density.

 **********************************************************************

 Orbital symmetries:
       Occupied  (A) (A) (A) (A) (A) (A) (A) (A) (A) (A) (A) (A)
                 (A) (A) (A) (A) (A) (A) (A) (A) (A) (A) (A) (A)
                 (A) (A) (A) (A) (A) (A)
       Virtual   (A) (A) (A) (A) (A) (A) (A) (A) (A) (A) (A) (A)
                 (A) (A) (A) (A) (A) (A) (A) (A) (A) (A) (A) (A)
                 (A) (A) (A) (A) (A) (A) (A) (A) (A) (A) (A) (A)
                 (A) (A) (A) (A) (A) (A) (A) (A) (A) (A) (A) (A)
                 (A) (A) (A) (A) (A) (A) (A) (A) (A) (A) (A) (A)
                 (A) (A) (A) (A) (A) (A) (A) (A) (A) (A) (A) (A)
                 (A) (A) (A) (A) (A) (A) (A) (A) (A) (A) (A) (A)
                 (A) (A) (A) (A) (A) (A) (A) (A) (A) (A) (A) (A)
                 (A) (A) (A) (A) (A) (A) (A) (A) (A) (A) (A) (A)
                 (A) (A) (A) (A) (A) (A) (A) (A) (A) (A) (A) (A)
                 (A) (A) (A) (A) (A) (A) (A) (A) (A) (A) (A) (A)
                 (A) (A) (A) (A) (A) (A) (A) (A) (A) (A) (A) (A)
                 (A) (A) (A) (A) (A) (A) (A) (A) (A) (A) (A) (A)
                 (A) (A) (A) (A) (A) (A) (A) (A) (A) (A) (A) (A)
                 (A) (A) (A) (A) (A) (A) (A) (A) (A) (A) (A) (A)
                 (A) (A) (A) (A) (A) (A) (A) (A) (A) (A) (A) (A)
                 (A) (A) (A) (A) (A) (A) (A) (A) (A) (A)
 The electronic state is 1-A.
 Alpha  occ. eigenvalues --  -38.43652 -19.17642 -19.17392 -19.17351 -19.17280
 Alpha  occ. eigenvalues --  -19.17219  -2.17114  -1.10515  -1.10389  -1.10378
 Alpha  occ. eigenvalues --   -1.03966  -1.03755  -1.03366  -1.03281  -1.03145
 Alpha  occ. eigenvalues --   -0.56183  -0.55378  -0.55212  -0.55071  -0.54990
 Alpha  occ. eigenvalues --   -0.43413  -0.42504  -0.41995  -0.41809  -0.41780
 Alpha  occ. eigenvalues --   -0.34484  -0.34279  -0.34146  -0.34063  -0.34056
 Alpha virt. eigenvalues --   -0.03697  -0.01687  -0.00989  -0.00460   0.01255
 Alpha virt. eigenvalues --    0.01835   0.01857   0.01963   0.02076   0.03435
 Alpha virt. eigenvalues --    0.03626   0.03958   0.04106   0.05602   0.05980
 Alpha virt. eigenvalues --    0.06268   0.06634   0.07702   0.11059   0.12019
 Alpha virt. eigenvalues --    0.12122   0.12329   0.12634   0.13009   0.13257
 Alpha virt. eigenvalues --    0.13987   0.14448   0.15033   0.15224   0.15520
 Alpha virt. eigenvalues --    0.15958   0.16182   0.16395   0.16993   0.17509
 Alpha virt. eigenvalues --    0.18053   0.18402   0.19556   0.20244   0.20544
 Alpha virt. eigenvalues --    0.21440   0.22471   0.24417   0.25234   0.25844
 Alpha virt. eigenvalues --    0.26167   0.26666   0.27992   0.29563   0.30008
 Alpha virt. eigenvalues --    0.31342   0.31807   0.32801   0.34409   0.35302
 Alpha virt. eigenvalues --    0.35883   0.36533   0.37783   0.38655   0.39633
 Alpha virt. eigenvalues --    0.39746   0.41127   0.41545   0.43420   0.43708
 Alpha virt. eigenvalues --    0.44392   0.45311   0.46132   0.46449   0.47034
 Alpha virt. eigenvalues --    0.47624   0.48156   0.48285   0.49597   0.49821
 Alpha virt. eigenvalues --    0.50448   0.51199   0.52133   0.53154   0.53626
 Alpha virt. eigenvalues --    0.54356   0.55945   0.57205   0.57772   0.59433
 Alpha virt. eigenvalues --    0.60387   0.61560   0.62045   0.64644   0.69703
 Alpha virt. eigenvalues --    0.69923   0.72073   0.72385   0.74092   0.75192
 Alpha virt. eigenvalues --    0.76002   0.82448   0.84101   0.85594   0.85835
 Alpha virt. eigenvalues --    0.87662   0.93494   0.94359   0.94792   0.97128
 Alpha virt. eigenvalues --    0.98356   0.99368   0.99460   1.00545   1.02072
 Alpha virt. eigenvalues --    1.03695   1.04538   1.06238   1.07114   1.07705
 Alpha virt. eigenvalues --    1.10279   1.16397   1.18856   1.19166   1.22078
 Alpha virt. eigenvalues --    1.23611   1.24589   1.27510   1.31370   1.31413
 Alpha virt. eigenvalues --    1.32628   1.34662   1.37962   1.40447   1.41410
 Alpha virt. eigenvalues --    1.44519   1.49787   1.58205   1.63275   1.64782
 Alpha virt. eigenvalues --    1.69556   1.75839   1.77982   1.78695   1.79603
 Alpha virt. eigenvalues --    1.80720   1.82338   1.85824   1.86342   1.87113
 Alpha virt. eigenvalues --    1.89884   1.90309   1.90551   1.91087   1.91710
 Alpha virt. eigenvalues --    1.93417   2.12357   2.13954   2.15630   2.16174
 Alpha virt. eigenvalues --    2.16616   2.17560   2.19085   2.19768   2.20623
 Alpha virt. eigenvalues --    2.21895   2.29743   2.33256   2.34681   2.35043
 Alpha virt. eigenvalues --    2.37965   2.47960   2.49734   2.54011   2.54370
 Alpha virt. eigenvalues --    2.55323   2.64387   2.73800   2.74347   2.78036
 Alpha virt. eigenvalues --    2.82231   2.95384   3.29794   3.30396   3.31306
 Alpha virt. eigenvalues --    3.31654   3.33157   3.33689   3.35158   3.35874
 Alpha virt. eigenvalues --    3.36425   3.38271   3.39317   3.41252   3.42458
 Alpha virt. eigenvalues --    3.43487   3.46753   3.67042   3.68327   3.71819
 Alpha virt. eigenvalues --    3.72735   3.73743   3.89600   3.89819   3.93644
 Alpha virt. eigenvalues --    3.94264   3.94364
          Condensed to atoms (all electrons):
               1          2          3          4          5          6
     1  O    7.976498   0.378560   0.254984  -0.001095  -0.013515  -0.001522
     2  H    0.378560   0.560341  -0.116093   0.002735  -0.002438  -0.000413
     3  H    0.254984  -0.116093   0.592874  -0.000036   0.003986  -0.000181
     4  H   -0.001095   0.002735  -0.000036   0.562898  -0.000399  -0.000412
     5  O   -0.013515  -0.002438   0.003986  -0.000399   7.824864   0.371077
     6  H   -0.001522  -0.000413  -0.000181  -0.000412   0.371077   0.587820
     7  H    0.002603   0.000031   0.000366  -0.000193   0.298817  -0.102668
     8  O   -0.015373  -0.000234   0.002562   0.004150  -0.006860  -0.000977
     9  O   -0.024993   0.008706   0.003106   0.363309  -0.007006   0.000159
    10  H    0.010896   0.001865   0.001755   0.002304  -0.000615  -0.000478
    11  H    0.001349  -0.000248   0.000393   0.000656  -0.000004   0.000209
    12  H    0.003131   0.000859   0.000848  -0.119282   0.002164   0.000303
    13  O   -0.008716  -0.000872  -0.000594   0.001091  -0.033923   0.013026
    14  H   -0.000689  -0.000185  -0.000054  -0.000167   0.002067   0.001465
    15  H   -0.000508  -0.000023   0.000041  -0.000043   0.000418   0.001255
    16  Na  -0.102634  -0.043601   0.027291  -0.033773  -0.080133  -0.043226
               7          8          9         10         11         12
     1  O    0.002603  -0.015373  -0.024993   0.010896   0.001349   0.003131
     2  H    0.000031  -0.000234   0.008706   0.001865  -0.000248   0.000859
     3  H    0.000366   0.002562   0.003106   0.001755   0.000393   0.000848
     4  H   -0.000193   0.004150   0.363309   0.002304   0.000656  -0.119282
     5  O    0.298817  -0.006860  -0.007006  -0.000615  -0.000004   0.002164
     6  H   -0.102668  -0.000977   0.000159  -0.000478   0.000209   0.000303
     7  H    0.585594  -0.000360   0.000540  -0.000045   0.000088   0.000266
     8  O   -0.000360   7.886941  -0.026994   0.386940   0.261543   0.003510
     9  O    0.000540  -0.026994   7.948000  -0.005199   0.004618   0.262893
    10  H   -0.000045   0.386940  -0.005199   0.575734  -0.126258  -0.000214
    11  H    0.000088   0.261543   0.004618  -0.126258   0.611122   0.000836
    12  H    0.000266   0.003510   0.262893  -0.000214   0.000836   0.603263
    13  O    0.002168  -0.008964  -0.017165  -0.002162   0.003742  -0.000017
    14  H    0.000428   0.000501   0.001028  -0.000625   0.000385   0.000133
    15  H    0.000541   0.000198   0.002546  -0.000253   0.000205  -0.000047
    16  Na   0.020878  -0.077060  -0.086980  -0.048597   0.028644   0.028258
              13         14         15         16
     1  O   -0.008716  -0.000689  -0.000508  -0.102634
     2  H   -0.000872  -0.000185  -0.000023  -0.043601
     3  H   -0.000594  -0.000054   0.000041   0.027291
     4  H    0.001091  -0.000167  -0.000043  -0.033773
     5  O   -0.033923   0.002067   0.000418  -0.080133
     6  H    0.013026   0.001465   0.001255  -0.043226
     7  H    0.002168   0.000428   0.000541   0.020878
     8  O   -0.008964   0.000501   0.000198  -0.077060
     9  O   -0.017165   0.001028   0.002546  -0.086980
    10  H   -0.002162  -0.000625  -0.000253  -0.048597
    11  H    0.003742   0.000385   0.000205   0.028644
    12  H   -0.000017   0.000133  -0.000047   0.028258
    13  O    7.927784   0.304651   0.304115  -0.084232
    14  H    0.304651   0.570596  -0.094656   0.009810
    15  H    0.304115  -0.094656   0.566169   0.009557
    16  Na  -0.084232   0.009810   0.009557  10.492381
 Mulliken charges:
               1
     1  O   -0.458977
     2  H    0.211008
     3  H    0.228752
     4  H    0.218256
     5  O   -0.358500
     6  H    0.174561
     7  H    0.190946
     8  O   -0.409524
     9  O   -0.426569
    10  H    0.204952
    11  H    0.212721
    12  H    0.213096
    13  O   -0.399933
    14  H    0.205311
    15  H    0.210484
    16  Na   0.983416
 Sum of Mulliken charges =   1.00000
 Mulliken charges with hydrogens summed into heavy atoms:
               1
     1  O   -0.019217
     5  O    0.007006
     8  O    0.008149
     9  O    0.004783
    13  O    0.015863
    16  Na   0.983416
 Electronic spatial extent (au):  <R**2>=           1157.3727
 Charge=              1.0000 electrons
 Dipole moment (field-independent basis, Debye):
    X=             -0.4927    Y=              0.7919    Z=              0.1312  Tot=              0.9419
 Quadrupole moment (field-independent basis, Debye-Ang):
   XX=             -9.2902   YY=            -15.1822   ZZ=            -24.6026
   XY=             -2.5867   XZ=              0.1622   YZ=             -0.0272
 Traceless Quadrupole moment (field-independent basis, Debye-Ang):
   XX=              7.0681   YY=              1.1761   ZZ=             -8.2442
   XY=             -2.5867   XZ=              0.1622   YZ=             -0.0272
 Octapole moment (field-independent basis, Debye-Ang**2):
  XXX=            -27.2552  YYY=            -14.9718  ZZZ=             10.1719  XYY=             -9.2912
  XXY=              0.4502  XXZ=             -2.2215  XZZ=             15.9133  YZZ=             19.5288
  YYZ=             -7.0688  XYZ=              0.6535
 Hexadecapole moment (field-independent basis, Debye-Ang**3):
 XXXX=           -487.3379 YYYY=           -240.8441 ZZZZ=           -135.1188 XXXY=            -23.3808
 XXXZ=             -1.6188 YYYX=            -14.1325 YYYZ=             -1.8729 ZZZX=             11.3233
 ZZZY=              2.0600 XXYY=            -43.6786 XXZZ=           -104.0267 YYZZ=            -67.4516
 XXYZ=             -3.1379 YYXZ=            -10.8049 ZZXY=              7.6761
 N-N= 3.019642098039D+02 E-N=-1.895850193395D+03  KE= 5.412816569591D+02
 SC-PCM: Using the SCF Density.
 SC-PCM: The equilibrium contribution to the free energy is   -0.077874359 a.u.
 SC-PCM: The total energy including the PCM contribution is      -544.542191645 a.u.
 SC-PCM: Erms=  0.22021D-07 Emax=  0.10105D-06 Qconv=  0.10000D-06
 SC-PCM: Convergence achieved in   6 iterations.
 SC-PCM: The reaction field is now self-consistent.
 Error on total polarization charges =  0.01104
 --------------------------------------------------------------------
 Self-consistent PCM results
 ===========================
 <psi(0)|   H    |psi(0)>                     (a.u.) =    -544.464577
 <psi(0)|H+V(0)/2|psi(0)>                     (a.u.) =    -544.541952
 <psi(0)|H+V(f)/2|psi(0)>                     (a.u.) =    -544.542451
 <psi(f)|   H    |psi(f)>                     (a.u.) =    -544.464317
 <psi(f)|H+V(f)/2|psi(f)>                     (a.u.) =    -544.542192
 Total free energy in solution:
 - with all non electrostatic terms           (a.u.) =    -544.520924
 --------------------------------------------------------------------
 (Unpolarized solute)-Solvent             (kcal/mol) =     -48.55
 (Polarized solute)-Solvent               (kcal/mol) =     -48.87
 Solute polarization                      (kcal/mol) =       0.16
 Total electrostatic                      (kcal/mol) =     -48.70
 --------------------------------------------------------------------
 Cavitation energy                        (kcal/mol) =      25.11
 Dispersion energy                        (kcal/mol) =     -12.71
 Repulsion energy                         (kcal/mol) =       0.94
 Total non electrostatic                  (kcal/mol) =      13.35
 DeltaG (solv)                            (kcal/mol) =     -35.36
 --------------------------------------------------------------------
 Dipole moment (Debye):
 in vacuo    : X= -0.4598 Y=  0.7416 Z=  0.1330 Tot=  0.8826
 in solution : X= -0.4927 Y=  0.7919 Z=  0.1312 Tot=  0.9419
 --------------------------------------------------------------------
 Partition over spheres:
 Sphere  on Atom  Surface  Charge   GEl     GCav    GDR
    1      O1      13.71   0.021    0.67    1.58   -0.37
    2      H2      10.44  -0.074   -3.36    1.32   -0.75
    3      H3      14.33  -0.116   -5.16    1.70   -1.12
    4      H4      10.22  -0.072   -3.25    1.32   -0.73
    5      O5      18.08   0.056    1.78    2.01   -0.80
    6      H6      11.08  -0.080   -3.55    1.42   -0.77
    7      H7      14.38  -0.117   -5.07    1.69   -1.07
    8      O8      14.26   0.027    0.94    1.61   -0.43
    9      O9      14.27   0.021    0.68    1.60   -0.36
   10      H10      9.72  -0.066   -2.92    1.23   -0.70
   11      H11     14.35  -0.114   -5.13    1.70   -1.13
   12      H12     14.40  -0.116   -5.24    1.71   -1.16
   13      O13     15.49   0.008    0.05    1.78   -0.23
   14      H14     14.39  -0.118   -5.54    1.71   -1.06
   15      H15     14.40  -0.118   -5.55    1.71   -1.05
   16     Na16      5.38  -0.140   -8.21    1.02   -0.04
 --------------------------------------------------------------------
 After PCM corrections, the energy is  -544.520924446     a.u.
 --------------------------------------------------------------------
 1\1\GINC-N680\SP\RB3LYP\Aug-CC-pVDZ\H10Na1O5(1+)\HNR2\18-Jul-2022\0\\#
  geom=check scrf=(solvent=water,iefpcm,externaliteration,1stvac,read) 
 rb3lyp/aug-cc-pvdz empiricaldispersion=gd3 scf=(maxcycle=500) int(Acc2
 E=11,grid=ultrafine)\\MD frame sim007_type3_coord-5_5-0-0_10C_b1_id817
 86_step4900\\1,1\O,-0.9929824683,-2.0654425087,0.2117863472\H,-1.61517
 67302,-1.8662433664,0.9260259402\H,-1.3560584298,-2.8295468374,-0.2530
 485908\H,-0.33869706,0.0358476452,2.5148833495\O,-0.7585282286,0.68080
 95439,-2.3155020122\H,-0.3741253696,1.5141745787,-2.6174604648\H,-1.33
 27690367,0.3777749763,-3.0289208231\O,1.4341525788,-1.0293390582,1.282
 0645063\O,-1.0760862,0.2726646018,1.9338181744\H,1.0870230386,-1.92910
 87931,1.1903502361\H,2.3528368384,-1.1214714179,1.562554627\H,-1.68910
 96958,0.7872808413,2.473192412\O,1.1216772549,2.2158181165,-0.65201109
 85\H,2.0522401393,2.3049409129,-0.8972087799\H,0.8930327124,3.06420453
 21,-0.2495808779\Na,-0.0384493434,0.1311362329,-0.2081529454\\Version=
 ES64L-G16RevB.01\State=1-A\HF=-544.5421916\RMSD=6.145e-09\Dipole=0.180
 2904,0.3144144,0.0771852\Quadrupole=-2.8418148,2.4563614,0.3854534,4.2
 177688,0.8992515,-3.3106716\PG=C01 [X(H10Na1O5)]\\@


 Any fool can criticize, condemn, and complain -- and most do.
 -- Dale Carnegie
 Job cpu time:       0 days  0 hours 44 minutes 55.7 seconds.
 Elapsed time:       0 days  0 hours  1 minutes 10.5 seconds.
 File lengths (MBytes):  RWF=     79 Int=      0 D2E=      0 Chk=      6 Scr=      1
 Normal termination of Gaussian 16 at Mon Jul 18 21:38:45 2022.
