 Entering Gaussian System, Link 0=g16
 Initial command:
 /share/sw/gaussian/g16_B.01_avx2-enabled/g16/l1.exe "/scratch/hnr2/2615646/Gau-34169.inp" -scrdir="/scratch/hnr2/2615646/"
 Entering Link 1 = /share/sw/gaussian/g16_B.01_avx2-enabled/g16/l1.exe PID=     34171.
  
 Copyright (c) 1988-2017, Gaussian, Inc.  All Rights Reserved.
  
 This is part of the Gaussian(R) 16 program.  It is based on
 the Gaussian(R) 09 system (copyright 2009, Gaussian, Inc.),
 the Gaussian(R) 03 system (copyright 2003, Gaussian, Inc.),
 the Gaussian(R) 98 system (copyright 1998, Gaussian, Inc.),
 the Gaussian(R) 94 system (copyright 1995, Gaussian, Inc.),
 the Gaussian 92(TM) system (copyright 1992, Gaussian, Inc.),
 the Gaussian 90(TM) system (copyright 1990, Gaussian, Inc.),
 the Gaussian 88(TM) system (copyright 1988, Gaussian, Inc.),
 the Gaussian 86(TM) system (copyright 1986, Carnegie Mellon
 University), and the Gaussian 82(TM) system (copyright 1983,
 Carnegie Mellon University). Gaussian is a federally registered
 trademark of Gaussian, Inc.
  
 This software contains proprietary and confidential information,
 including trade secrets, belonging to Gaussian, Inc.
  
 This software is provided under written license and may be
 used, copied, transmitted, or stored only in accord with that
 written license.
  
 The following legend is applicable only to US Government
 contracts under FAR:
  
                    RESTRICTED RIGHTS LEGEND
  
 Use, reproduction and disclosure by the US Government is
 subject to restrictions as set forth in subparagraphs (a)
 and (c) of the Commercial Computer Software - Restricted
 Rights clause in FAR 52.227-19.
  
 Gaussian, Inc.
 340 Quinnipiac St., Bldg. 40, Wallingford CT 06492
  
  
 ---------------------------------------------------------------
 Warning -- This program may not be used in any manner that
 competes with the business of Gaussian, Inc. or will provide
 assistance to any competitor of Gaussian, Inc.  The licensee
 of this program is prohibited from giving any competitor of
 Gaussian, Inc. access to this program.  By using this program,
 the user acknowledges that Gaussian, Inc. is engaged in the
 business of creating and licensing software in the field of
 computational chemistry and represents and warrants to the
 licensee that it is not a competitor of Gaussian, Inc. and that
 it will not use this program in any manner prohibited above.
 ---------------------------------------------------------------
  

 Cite this work as:
 Gaussian 16, Revision B.01,
 M. J. Frisch, G. W. Trucks, H. B. Schlegel, G. E. Scuseria, 
 M. A. Robb, J. R. Cheeseman, G. Scalmani, V. Barone, 
 G. A. Petersson, H. Nakatsuji, X. Li, M. Caricato, A. V. Marenich, 
 J. Bloino, B. G. Janesko, R. Gomperts, B. Mennucci, H. P. Hratchian, 
 J. V. Ortiz, A. F. Izmaylov, J. L. Sonnenberg, D. Williams-Young, 
 F. Ding, F. Lipparini, F. Egidi, J. Goings, B. Peng, A. Petrone, 
 T. Henderson, D. Ranasinghe, V. G. Zakrzewski, J. Gao, N. Rega, 
 G. Zheng, W. Liang, M. Hada, M. Ehara, K. Toyota, R. Fukuda, 
 J. Hasegawa, M. Ishida, T. Nakajima, Y. Honda, O. Kitao, H. Nakai, 
 T. Vreven, K. Throssell, J. A. Montgomery, Jr., J. E. Peralta, 
 F. Ogliaro, M. J. Bearpark, J. J. Heyd, E. N. Brothers, K. N. Kudin, 
 V. N. Staroverov, T. A. Keith, R. Kobayashi, J. Normand, 
 K. Raghavachari, A. P. Rendell, J. C. Burant, S. S. Iyengar, 
 J. Tomasi, M. Cossi, J. M. Millam, M. Klene, C. Adamo, R. Cammi, 
 J. W. Ochterski, R. L. Martin, K. Morokuma, O. Farkas, 
 J. B. Foresman, and D. J. Fox, Gaussian, Inc., Wallingford CT, 2016.
 
 ******************************************
 Gaussian 16:  ES64L-G16RevB.01 20-Dec-2017
                18-Jul-2022 
 ******************************************
 %nprocshared=40
 Will use up to   40 processors via shared memory.
 %mem=60GB
 %chk=sim009_type3_coord-5_4-1-0_10C_b1_id81769_step4300.chk
 ----------------------------------------------------------------------
 # opt=(calcall,maxcycles=500,maxstep=10,cartesian) freq iop(1/152=500,
 1/8=10) scf=(maxcycle=500) int(Acc2E=11,grid=ultrafine) rb3lyp/aug-cc-
 pvdz empiricaldispersion=gd3
 ----------------------------------------------------------------------
 1/6=500,8=10,10=4,18=10,26=4,38=1,152=500/1,3;
 2/12=2,17=6,18=5,29=2,40=1/2;
 3/5=16,7=10,11=2,25=1,27=11,30=1,71=2,74=-5,75=-5,116=1,124=31,140=1/1,2,3;
 4//1;
 5/5=2,7=500,38=5,87=11/2;
 8/6=4,10=90,11=11,87=11/1;
 11/6=1,8=1,9=11,15=111,16=1,87=11/1,2,10;
 10/6=1,87=11/2;
 6/7=2,8=2,9=2,10=2,18=1,28=1,87=11/1;
 7/7=1,10=1,25=1,87=11/1,2,3,16;
 1/6=500,8=10,10=4,18=10,26=4,152=500/3(3);
 2/29=1/2;
 7/7=1,8=1,9=1,25=1,44=-1,87=11/16;
 99/12=1/99;
 2/29=1/2;
 3/5=16,7=10,11=2,25=1,27=11,30=1,71=2,74=-5,75=-5,116=1,124=31,140=1/1,2,3;
 4/5=5,16=3,69=1/1;
 5/5=2,7=500,38=5,87=11/2;
 8/6=4,10=90,11=11,87=11/1;
 11/6=1,8=1,9=11,15=111,16=1,87=11/1,2,10;
 10/6=1,87=11/2;
 7/7=1,10=1,25=1,87=11/1,2,3,16;
 1/6=500,8=10,10=4,18=10,26=4,152=500/3(-8);
 2/29=1/2;
 6/7=2,8=2,9=2,10=2,18=1,19=2,28=1,87=11/1;
 7/7=1,8=1,9=1,25=1,44=-1,87=11/16;
 99/12=1/99;
 -----------------------------------------------------------
 MD frame sim009_type3_coord-5_4-1-0_10C_b1_id81769_step4300
 -----------------------------------------------------------
 Symbolic Z-matrix:
 Charge =  1 Multiplicity = 1
 O                    -0.35308   1.1259   -1.96408 
 H                    -0.46786   1.27     -2.90317 
 H                    -0.67564   1.9296   -1.55681 
 O                     1.94289  -0.6413    1.10875 
 H                    -0.88815   2.62834   1.36328 
 O                    -0.18714   2.13094   0.94188 
 H                     0.61885   2.55474   1.23668 
 H                     2.4527   -1.4484    1.17505 
 H                     2.5135    0.03379   1.47542 
 O                     0.60161  -1.68805  -1.39106 
 H                     0.79929  -2.61004  -1.22728 
 H                     1.38569  -1.34805  -1.8211 
 H                    -2.64006  -0.7859    1.48029 
 O                    -2.24086  -0.398     0.70188 
 H                    -2.84726  -0.6072   -0.00831 
 Na                    0.        0.        0. 
 

 GradGradGradGradGradGradGradGradGradGradGradGradGradGradGradGradGradGrad
 Berny optimization.
 Initialization pass.
 No Z-matrix variables, so optimization will use Cartesian coordinates.
 Trust Radius=1.00D-01 FncErr=1.00D-07 GrdErr=1.00D-06 EigMax=2.50D+02 EigMin=1.00D-04
 Number of steps in this run=    500 maximum allowed number of steps=    500.
 GradGradGradGradGradGradGradGradGradGradGradGradGradGradGradGradGradGrad

 ---------------------------------------------------------------------------------------------------
                            Z-MATRIX (ANGSTROMS AND DEGREES)
   CD    Cent   Atom    N1       Length/X        N2       Alpha/Y        N3        Beta/Z          J
 ---------------------------------------------------------------------------------------------------
      1      1  O        0  -0.353080          1.125900         -1.964080
      2      2  H        0  -0.467860          1.270000         -2.903170
      3      3  H        0  -0.675640          1.929600         -1.556810
      4      4  O        0   1.942890         -0.641300          1.108750
      5      5  H        0  -0.888150          2.628340          1.363280
      6      6  O        0  -0.187140          2.130940          0.941880
      7      7  H        0   0.618850          2.554740          1.236680
      8      8  H        0   2.452700         -1.448400          1.175050
      9      9  H        0   2.513500          0.033790          1.475420
     10     10  O        0   0.601610         -1.688050         -1.391060
     11     11  H        0   0.799290         -2.610040         -1.227280
     12     12  H        0   1.385690         -1.348050         -1.821100
     13     13  H        0  -2.640060         -0.785900          1.480290
     14     14  O        0  -2.240860         -0.398000          0.701880
     15     15  H        0  -2.847260         -0.607200         -0.008310
     16     16  Na       0   0.000000          0.000000          0.000000
 ---------------------------------------------------------------------------------------------------
                         Z-Matrix orientation:                         
 ---------------------------------------------------------------------
 Center     Atomic      Atomic             Coordinates (Angstroms)
 Number     Number       Type             X           Y           Z
 ---------------------------------------------------------------------
      1          8           0       -0.353080    1.125900   -1.964080
      2          1           0       -0.467860    1.270000   -2.903170
      3          1           0       -0.675640    1.929600   -1.556810
      4          8           0        1.942890   -0.641300    1.108750
      5          1           0       -0.888150    2.628340    1.363280
      6          8           0       -0.187140    2.130940    0.941880
      7          1           0        0.618850    2.554740    1.236680
      8          1           0        2.452700   -1.448400    1.175050
      9          1           0        2.513500    0.033790    1.475420
     10          8           0        0.601610   -1.688050   -1.391060
     11          1           0        0.799290   -2.610040   -1.227280
     12          1           0        1.385690   -1.348050   -1.821100
     13          1           0       -2.640060   -0.785900    1.480290
     14          8           0       -2.240860   -0.398000    0.701880
     15          1           0       -2.847260   -0.607200   -0.008310
     16         11           0        0.000000    0.000000    0.000000
 ---------------------------------------------------------------------
                    Distance matrix (angstroms):
                    1          2          3          4          5
     1  O    0.000000
     2  H    0.956990   0.000000
     3  H    0.956999   1.513582   0.000000
     4  O    4.223359   5.055718   4.535575   0.000000
     5  H    3.689844   4.497147   3.010037   4.332450   0.000000
     6  O    3.079325   3.950244   2.553942   3.500027   0.957288
     7  H    3.637457   4.468764   3.141670   3.461809   1.514098
     8  H    4.934933   5.705370   5.353546   0.956929   5.274137
     9  H    4.608703   5.439556   4.791568   0.956969   4.279660
    10  O    3.026235   3.490029   3.840082   3.023866   5.332635
    11  H    3.978452   4.412367   4.784594   3.262023   6.082687
    12  H    3.027242   3.385367   3.880969   3.064961   5.578737
    13  H    4.555101   5.306590   4.522926   4.600259   3.839260
    14  O    3.604626   4.349958   3.601294   4.210523   3.380238
    15  H    3.612424   4.191138   3.680916   4.918793   4.023443
    16  Na   2.291272   3.203153   2.569728   2.327104   3.091199
                    6          7          8          9         10
     6  O    0.000000
     7  H    0.957149   0.000000
     8  H    4.453628   4.403627   0.000000
     9  H    3.460659   3.162576   1.513541   0.000000
    10  O    4.544163   4.990649   3.173151   3.851852   0.000000
    11  H    5.306146   5.725261   3.139166   4.151258   0.957062
    12  H    4.712879   5.016954   3.182058   3.748130   0.956721
    13  H    3.848981   4.673298   5.144733   5.218342   4.423455
    14  O    3.266635   4.145193   4.832881   4.836191   3.758226
    15  H    3.934020   4.854048   5.495228   5.599113   3.869747
    16  Na   2.337320   2.905004   3.081289   2.914736   2.268589
                   11         12         13         14         15
    11  H    0.000000
    12  H    1.512979   0.000000
    13  H    4.742104   5.236588   0.000000
    14  O    4.225789   4.518837   0.956948   0.000000
    15  H    4.335272   4.664004   1.513537   0.957003   0.000000
    16  Na   2.992890   2.655895   3.127110   2.381700   2.911297
                   16
    16  Na   0.000000
 Stoichiometry    H10NaO5(1+)
 Framework group  C1[X(H10NaO5)]
 Deg. of freedom    42
 Full point group                 C1      NOp   1
 Largest Abelian subgroup         C1      NOp   1
 Largest concise Abelian subgroup C1      NOp   1
                         Standard orientation:                         
 ---------------------------------------------------------------------
 Center     Atomic      Atomic             Coordinates (Angstroms)
 Number     Number       Type             X           Y           Z
 ---------------------------------------------------------------------
      1          8           0       -0.616551   -1.386557   -1.539319
      2          1           0       -0.629228   -2.164771   -2.096142
      3          1           0       -1.477934   -0.988534   -1.663596
      4          8           0        1.655519    1.763599    0.119287
      5          1           0       -2.638605    1.472513   -0.376580
      6          8           0       -1.731842    1.344188   -0.655351
      7          1           0       -1.531798    2.115988   -1.184919
      8          1           0        2.562977    1.843894    0.412179
      9          1           0        1.504003    2.546372   -0.409955
     10          8           0        1.922693   -1.248387    0.101184
     11          1           0        2.680103   -1.281171    0.685325
     12          1           0        2.296385   -1.099614   -0.766881
     13          1           0       -1.447753   -0.310578    2.808130
     14          8           0       -1.309295   -0.626400    1.915473
     15          1           0       -1.450027   -1.571382    1.970775
     16         11           0        0.069790    0.060521    0.099225
 ---------------------------------------------------------------------
 Rotational constants (GHZ):           1.7154523           1.4509127           1.2933175
 Standard basis: Aug-CC-pVDZ (5D, 7F)
 There are   244 symmetry adapted cartesian basis functions of A   symmetry.
 There are   232 symmetry adapted basis functions of A   symmetry.
   232 basis functions,   406 primitive gaussians,   244 cartesian basis functions
    30 alpha electrons       30 beta electrons
       nuclear repulsion energy       308.7617160918 Hartrees.
 NAtoms=   16 NActive=   16 NUniq=   16 SFac= 1.00D+00 NAtFMM=   60 NAOKFM=F Big=F
 Integral buffers will be    131072 words long.
 Raffenetti 2 integral format.
 Two-electron integral symmetry is turned on.
 Nuclear repulsion after empirical dispersion term =      308.7535898263 Hartrees.
 One-electron integrals computed using PRISM.
 NBasis=   232 RedAO= T EigKep=  2.25D-04  NBF=   232
 NBsUse=   232 1.00D-06 EigRej= -1.00D+00 NBFU=   232
 ExpMin= 6.16D-03 ExpMax= 3.17D+04 ExpMxC= 1.08D+03 IAcc=3 IRadAn=         5 AccDes= 0.00D+00
 Harris functional with IExCor=  402 and IRadAn=       5 diagonalized for initial guess.
 HarFok:  IExCor=  402 AccDes= 0.00D+00 IRadAn=         5 IDoV= 1 UseB2=F ITyADJ=14
 ICtDFT=  3500011 ScaDFX=  1.000000  1.000000  1.000000  1.000000
 FoFCou: FMM=F IPFlag=           0 FMFlag=      100000 FMFlg1=           0
         NFxFlg=           0 DoJE=T BraDBF=F KetDBF=T FulRan=T
         wScrn=  0.000000 ICntrl=       500 IOpCl=  0 I1Cent=   200000004 NGrid=           0
         NMat0=    1 NMatS0=      1 NMatT0=    0 NMatD0=    1 NMtDS0=    0 NMtDT0=    0
 Petite list used in FoFCou.
 Requested convergence on RMS density matrix=1.00D-08 within 500 cycles.
 Requested convergence on MAX density matrix=1.00D-06.
 Requested convergence on             energy=1.00D-06.
 No special actions if energy rises.
 SCF Done:  E(RB3LYP) =  -544.453072746     A.U. after   10 cycles
            NFock= 10  Conv=0.34D-08     -V/T= 2.0054
 DoSCS=F DFT=T ScalE2(SS,OS)=  1.000000  1.000000
 Range of M.O.s used for correlation:     1   232
 NBasis=   232 NAE=    30 NBE=    30 NFC=     0 NFV=     0
 NROrb=    232 NOA=    30 NOB=    30 NVA=   202 NVB=   202

 **** Warning!!: The largest alpha MO coefficient is  0.18125243D+02

 Symmetrizing basis deriv contribution to polar:
 IMax=3 JMax=2 DiffMx= 0.00D+00
 G2DrvN: will do    17 centers at a time, making    1 passes.
 Calling FoFCou, ICntrl=  3107 FMM=F I1Cent=   0 AccDes= 1.00D-11.
 End of G2Drv F.D. properties file   721 does not exist.
 End of G2Drv F.D. properties file   722 does not exist.
 End of G2Drv F.D. properties file   788 does not exist.
          IDoAtm=1111111111111111
          Differentiating once with respect to electric field.
                with respect to dipole field.
          Differentiating once with respect to nuclear coordinates.
 Keep R1 ints in memory in canonical form, NReq=408195318.
          There are    51 degrees of freedom in the 1st order CPHF.  IDoFFX=6 NUNeed=     3.
     48 vectors produced by pass  0 Test12= 1.19D-14 1.96D-09 XBig12= 2.18D+01 9.62D-01.
 AX will form    48 AO Fock derivatives at one time.
     48 vectors produced by pass  1 Test12= 1.19D-14 1.96D-09 XBig12= 1.74D+00 2.04D-01.
     48 vectors produced by pass  2 Test12= 1.19D-14 1.96D-09 XBig12= 1.81D-02 2.12D-02.
     48 vectors produced by pass  3 Test12= 1.19D-14 1.96D-09 XBig12= 4.06D-05 6.52D-04.
     48 vectors produced by pass  4 Test12= 1.19D-14 1.96D-09 XBig12= 5.26D-08 2.34D-05.
     23 vectors produced by pass  5 Test12= 1.19D-14 1.96D-09 XBig12= 4.18D-11 6.39D-07.
      3 vectors produced by pass  6 Test12= 1.19D-14 1.96D-09 XBig12= 2.79D-14 1.69D-08.
 InvSVY:  IOpt=1 It=  1 EMax= 3.55D-15
 Solved reduced A of dimension   266 with    51 vectors.
 Isotropic polarizability for W=    0.000000       46.23 Bohr**3.
 End of Minotr F.D. properties file   721 does not exist.
 End of Minotr F.D. properties file   722 does not exist.
 End of Minotr F.D. properties file   788 does not exist.

 **********************************************************************

            Population analysis using the SCF Density.

 **********************************************************************

 Orbital symmetries:
       Occupied  (A) (A) (A) (A) (A) (A) (A) (A) (A) (A) (A) (A)
                 (A) (A) (A) (A) (A) (A) (A) (A) (A) (A) (A) (A)
                 (A) (A) (A) (A) (A) (A)
       Virtual   (A) (A) (A) (A) (A) (A) (A) (A) (A) (A) (A) (A)
                 (A) (A) (A) (A) (A) (A) (A) (A) (A) (A) (A) (A)
                 (A) (A) (A) (A) (A) (A) (A) (A) (A) (A) (A) (A)
                 (A) (A) (A) (A) (A) (A) (A) (A) (A) (A) (A) (A)
                 (A) (A) (A) (A) (A) (A) (A) (A) (A) (A) (A) (A)
                 (A) (A) (A) (A) (A) (A) (A) (A) (A) (A) (A) (A)
                 (A) (A) (A) (A) (A) (A) (A) (A) (A) (A) (A) (A)
                 (A) (A) (A) (A) (A) (A) (A) (A) (A) (A) (A) (A)
                 (A) (A) (A) (A) (A) (A) (A) (A) (A) (A) (A) (A)
                 (A) (A) (A) (A) (A) (A) (A) (A) (A) (A) (A) (A)
                 (A) (A) (A) (A) (A) (A) (A) (A) (A) (A) (A) (A)
                 (A) (A) (A) (A) (A) (A) (A) (A) (A) (A) (A) (A)
                 (A) (A) (A) (A) (A) (A) (A) (A) (A) (A) (A) (A)
                 (A) (A) (A) (A) (A) (A) (A) (A) (A) (A) (A) (A)
                 (A) (A) (A) (A) (A) (A) (A) (A) (A) (A) (A) (A)
                 (A) (A) (A) (A) (A) (A) (A) (A) (A) (A) (A) (A)
                 (A) (A) (A) (A) (A) (A) (A) (A) (A) (A)
 The electronic state is 1-A.
 Alpha  occ. eigenvalues --  -38.57346 -19.32105 -19.31675 -19.30607 -19.30383
 Alpha  occ. eigenvalues --  -19.30375  -2.31044  -1.24459  -1.24415  -1.24378
 Alpha  occ. eigenvalues --   -1.18794  -1.18394  -1.17288  -1.17204  -1.17071
 Alpha  occ. eigenvalues --   -0.70380  -0.69900  -0.68973  -0.68758  -0.68651
 Alpha  occ. eigenvalues --   -0.58128  -0.57207  -0.56518  -0.55773  -0.54892
 Alpha  occ. eigenvalues --   -0.49002  -0.48725  -0.47386  -0.47228  -0.46881
 Alpha virt. eigenvalues --   -0.16787  -0.13911  -0.13425  -0.12405  -0.10423
 Alpha virt. eigenvalues --   -0.08964  -0.07853  -0.07593  -0.06826  -0.06372
 Alpha virt. eigenvalues --   -0.05717  -0.05248  -0.05164  -0.04885  -0.04774
 Alpha virt. eigenvalues --   -0.04378  -0.03831  -0.02473  -0.00017   0.00439
 Alpha virt. eigenvalues --    0.00594   0.01113   0.01229   0.01670   0.01765
 Alpha virt. eigenvalues --    0.02195   0.02780   0.03182   0.03471   0.03728
 Alpha virt. eigenvalues --    0.04538   0.04793   0.04972   0.05615   0.06190
 Alpha virt. eigenvalues --    0.06586   0.07284   0.07364   0.07926   0.08291
 Alpha virt. eigenvalues --    0.08757   0.09783   0.10790   0.11458   0.12253
 Alpha virt. eigenvalues --    0.14396   0.14811   0.16716   0.16910   0.17436
 Alpha virt. eigenvalues --    0.19117   0.19316   0.20251   0.21268   0.21925
 Alpha virt. eigenvalues --    0.22363   0.23152   0.23646   0.25334   0.25715
 Alpha virt. eigenvalues --    0.26843   0.27730   0.28343   0.29406   0.30582
 Alpha virt. eigenvalues --    0.30687   0.31785   0.33102   0.33661   0.34706
 Alpha virt. eigenvalues --    0.35592   0.35630   0.36149   0.36600   0.37055
 Alpha virt. eigenvalues --    0.37520   0.38477   0.38830   0.40396   0.40976
 Alpha virt. eigenvalues --    0.41438   0.41743   0.43290   0.43991   0.45215
 Alpha virt. eigenvalues --    0.45809   0.46197   0.47219   0.47920   0.50444
 Alpha virt. eigenvalues --    0.53784   0.57961   0.58914   0.61882   0.63862
 Alpha virt. eigenvalues --    0.64859   0.67724   0.70136   0.70771   0.74371
 Alpha virt. eigenvalues --    0.76239   0.79709   0.81061   0.81851   0.82967
 Alpha virt. eigenvalues --    0.83433   0.84078   0.85302   0.86909   0.88908
 Alpha virt. eigenvalues --    0.89918   0.91489   0.93274   0.94201   0.95352
 Alpha virt. eigenvalues --    0.98661   1.01580   1.02971   1.03726   1.05674
 Alpha virt. eigenvalues --    1.06403   1.11203   1.14371   1.15128   1.16524
 Alpha virt. eigenvalues --    1.17580   1.19759   1.22432   1.23721   1.26935
 Alpha virt. eigenvalues --    1.29782   1.35386   1.37925   1.48854   1.51695
 Alpha virt. eigenvalues --    1.56956   1.62419   1.63796   1.64811   1.67290
 Alpha virt. eigenvalues --    1.69481   1.70604   1.71692   1.74010   1.76155
 Alpha virt. eigenvalues --    1.77038   1.77346   1.78589   1.81061   1.82144
 Alpha virt. eigenvalues --    1.84606   1.97458   1.99583   2.01050   2.03077
 Alpha virt. eigenvalues --    2.03776   2.04977   2.05129   2.06415   2.07559
 Alpha virt. eigenvalues --    2.08510   2.15556   2.19137   2.20154   2.21294
 Alpha virt. eigenvalues --    2.25528   2.33700   2.35851   2.38905   2.41582
 Alpha virt. eigenvalues --    2.42957   2.50393   2.60410   2.63611   2.66910
 Alpha virt. eigenvalues --    2.69578   2.71352   3.16377   3.16645   3.17253
 Alpha virt. eigenvalues --    3.18750   3.19641   3.20944   3.21466   3.22436
 Alpha virt. eigenvalues --    3.22825   3.23844   3.25177   3.26361   3.28594
 Alpha virt. eigenvalues --    3.30326   3.30501   3.54204   3.55204   3.56181
 Alpha virt. eigenvalues --    3.56575   3.60833   3.77919   3.78259   3.78962
 Alpha virt. eigenvalues --    3.80194   3.82041
          Condensed to atoms (all electrons):
               1          2          3          4          5          6
     1  O    7.611567   0.324413   0.369916   0.000351   0.002669  -0.025912
     2  H    0.324413   0.612766  -0.115772   0.001190   0.001106   0.003846
     3  H    0.369916  -0.115772   0.627176  -0.000327  -0.002544  -0.001585
     4  O    0.000351   0.001190  -0.000327   7.628025   0.000449  -0.017496
     5  H    0.002669   0.001106  -0.002544   0.000449   0.577011   0.339886
     6  O   -0.025912   0.003846  -0.001585  -0.017496   0.339886   7.812894
     7  H    0.001140  -0.000440   0.003041   0.000172  -0.100175   0.333327
     8  H   -0.000430  -0.000011  -0.000270   0.348119   0.000052   0.000427
     9  H    0.000150   0.000159  -0.000116   0.359104  -0.000501   0.000543
    10  O   -0.033562   0.000774   0.001178  -0.038029  -0.000232  -0.001776
    11  H    0.003083   0.000763   0.000556  -0.000204   0.000189   0.000167
    12  H    0.001357  -0.002608   0.000488   0.001717  -0.000462   0.000023
    13  H   -0.000177   0.000223  -0.001033   0.001071  -0.000485   0.002255
    14  O   -0.008010   0.001870  -0.000598  -0.001406   0.006682  -0.028050
    15  H    0.003039   0.000135   0.000181   0.000888   0.000854   0.001206
    16  Na  -0.001734   0.014848  -0.029927  -0.032792  -0.007371  -0.061896
               7          8          9         10         11         12
     1  O    0.001140  -0.000430   0.000150  -0.033562   0.003083   0.001357
     2  H   -0.000440  -0.000011   0.000159   0.000774   0.000763  -0.002608
     3  H    0.003041  -0.000270  -0.000116   0.001178   0.000556   0.000488
     4  O    0.000172   0.348119   0.359104  -0.038029  -0.000204   0.001717
     5  H   -0.100175   0.000052  -0.000501  -0.000232   0.000189  -0.000462
     6  O    0.333327   0.000427   0.000543  -0.001776   0.000167   0.000023
     7  H    0.600463  -0.000822   0.001549  -0.000010  -0.000237   0.000243
     8  H   -0.000822   0.590778  -0.100717   0.003349  -0.000071   0.000573
     9  H    0.001549  -0.100717   0.612560   0.002888  -0.000349   0.000430
    10  O   -0.000010   0.003349   0.002888   7.600975   0.332351   0.349097
    11  H   -0.000237  -0.000071  -0.000349   0.332351   0.613963  -0.098312
    12  H    0.000243   0.000573   0.000430   0.349097  -0.098312   0.634140
    13  H    0.000423   0.000273  -0.000263   0.001120   0.000127   0.000172
    14  O    0.000312  -0.000292  -0.000266  -0.011410   0.003114  -0.002990
    15  H   -0.000070  -0.000223   0.000068  -0.001118   0.001164  -0.001483
    16  Na  -0.011186   0.000938  -0.015032  -0.016125   0.009170  -0.013733
              13         14         15         16
     1  O   -0.000177  -0.008010   0.003039  -0.001734
     2  H    0.000223   0.001870   0.000135   0.014848
     3  H   -0.001033  -0.000598   0.000181  -0.029927
     4  O    0.001071  -0.001406   0.000888  -0.032792
     5  H   -0.000485   0.006682   0.000854  -0.007371
     6  O    0.002255  -0.028050   0.001206  -0.061896
     7  H    0.000423   0.000312  -0.000070  -0.011186
     8  H    0.000273  -0.000292  -0.000223   0.000938
     9  H   -0.000263  -0.000266   0.000068  -0.015032
    10  O    0.001120  -0.011410  -0.001118  -0.016125
    11  H    0.000127   0.003114   0.001164   0.009170
    12  H    0.000172  -0.002990  -0.001483  -0.013733
    13  H    0.584519   0.335739  -0.106084   0.009691
    14  O    0.335739   7.686142   0.361554  -0.050858
    15  H   -0.106084   0.361554   0.602903  -0.022714
    16  Na   0.009691  -0.050858  -0.022714  10.448807
 Mulliken charges:
               1
     1  O   -0.247861
     2  H    0.156738
     3  H    0.149636
     4  O   -0.250831
     5  H    0.182872
     6  O   -0.357859
     7  H    0.172271
     8  H    0.158327
     9  H    0.139792
    10  O   -0.189469
    11  H    0.134528
    12  H    0.131347
    13  H    0.172428
    14  O   -0.291532
    15  H    0.159699
    16  Na   0.779914
 Sum of Mulliken charges =   1.00000
 Mulliken charges with hydrogens summed into heavy atoms:
               1
     1  O    0.058513
     4  O    0.047288
     6  O   -0.002716
    10  O    0.076406
    14  O    0.040595
    16  Na   0.779914
 APT charges:
               1
     1  O   -0.563996
     2  H    0.296403
     3  H    0.292919
     4  O   -0.550872
     5  H    0.300491
     6  O   -0.554805
     7  H    0.282188
     8  H    0.294906
     9  H    0.279692
    10  O   -0.540712
    11  H    0.286995
    12  H    0.286286
    13  H    0.289178
    14  O   -0.551289
    15  H    0.287079
    16  Na   0.865537
 Sum of APT charges =   1.00000
 APT charges with hydrogens summed into heavy atoms:
               1
     1  O    0.025326
     4  O    0.023726
     6  O    0.027874
    10  O    0.032569
    14  O    0.024968
    16  Na   0.865537
 Electronic spatial extent (au):  <R**2>=           1112.7285
 Charge=              1.0000 electrons
 Dipole moment (field-independent basis, Debye):
    X=              0.1846    Y=              1.6797    Z=             -0.3571  Tot=              1.7272
 Quadrupole moment (field-independent basis, Debye-Ang):
   XX=             -9.5409   YY=            -17.7943   ZZ=            -20.8109
   XY=              1.7845   XZ=              0.4717   YZ=             -2.4777
 Traceless Quadrupole moment (field-independent basis, Debye-Ang):
   XX=              6.5078   YY=             -1.7456   ZZ=             -4.7622
   XY=              1.7845   XZ=              0.4717   YZ=             -2.4777
 Octapole moment (field-independent basis, Debye-Ang**2):
  XXX=             24.2305  YYY=             21.0759  ZZZ=             19.3407  XYY=             -2.6765
  XXY=             13.1103  XXZ=              3.5710  XZZ=            -17.3844  YZZ=            -16.5931
  YYZ=            -17.9601  XYZ=              4.0088
 Hexadecapole moment (field-independent basis, Debye-Ang**3):
 XXXX=           -296.4671 YYYY=           -283.7790 ZZZZ=           -195.8039 XXXY=            -24.5684
 XXXZ=             27.4989 YYYX=             34.4249 YYYZ=            -16.1469 ZZZX=            -34.9336
 ZZZY=              6.8359 XXYY=            -70.6564 XXZZ=            -93.3113 YYZZ=            -63.1707
 XXYZ=             -8.3100 YYXZ=              8.6892 ZZXY=             12.6544
 N-N= 3.087535898263D+02 E-N=-1.901097289684D+03  KE= 5.415211461885D+02
  Exact polarizability:  46.663  -0.350  46.897   0.311   0.197  45.132
 Approx polarizability:  55.825  -0.122  55.584   0.172  -0.459  55.044
 Calling FoFJK, ICntrl=    100127 FMM=F ISym2X=0 I1Cent= 0 IOpClX= 0 NMat=1 NMatS=1 NMatT=0.
 ***** Axes restored to original set *****
 -------------------------------------------------------------------
 Center     Atomic                   Forces (Hartrees/Bohr)
 Number     Number              X              Y              Z
 -------------------------------------------------------------------
      1        8           0.002142804   -0.003958964    0.004823238
      2        1          -0.000129333   -0.002258530   -0.008620748
      3        1          -0.002361226    0.010758551    0.004048764
      4        8          -0.006596494    0.005297010   -0.003113816
      5        1          -0.008215112    0.002393369    0.003911809
      6        8           0.002024750   -0.006288921   -0.006516038
      7        1           0.007165331    0.005955008    0.002207305
      8        1           0.003100050   -0.008197620    0.000400682
      9        1           0.006090911    0.005382178    0.005500287
     10        8          -0.005823989    0.000989497    0.002107089
     11        1          -0.000372610   -0.009155082    0.000492379
     12        1           0.007294565    0.002938430   -0.007272014
     13        1          -0.002742745   -0.002878641    0.008293631
     14        8           0.009627717    0.004138820   -0.001833372
     15        1          -0.006300542   -0.001583871   -0.007563227
     16       11          -0.004904078   -0.003531234    0.003134030
 -------------------------------------------------------------------
 Cartesian Forces:  Max     0.010758551 RMS     0.005329420

 GradGradGradGradGradGradGradGradGradGradGradGradGradGradGradGradGradGrad
 Berny optimization.
 Search for a local minimum.
 Step number   1 out of a maximum of  500
 All quantities printed in internal units (Hartrees-Bohrs-Radians)
 Second derivative matrix not updated -- analytic derivatives used.
 ITU=  0
     Eigenvalues ---   -0.00748  -0.00600  -0.00572  -0.00531  -0.00471
     Eigenvalues ---   -0.00406  -0.00380  -0.00348  -0.00293  -0.00243
     Eigenvalues ---   -0.00219  -0.00155  -0.00110  -0.00042  -0.00012
     Eigenvalues ---    0.00001   0.00184   0.00399   0.00462   0.00535
     Eigenvalues ---    0.00598   0.00728   0.00778   0.01408   0.03048
     Eigenvalues ---    0.04303   0.05509   0.15832   0.15971   0.16218
     Eigenvalues ---    0.16324   0.16429   0.89394   0.90829   0.94484
     Eigenvalues ---    0.95992   0.97033   1.11933   1.15308   1.17991
     Eigenvalues ---    1.22407   1.26429
 RFO step:  Lambda=-1.03789438D-02 EMin=-7.48158587D-03
 Linear search not attempted -- first point.
 Maximum step size (   0.100) exceeded in Quadratic search.
    -- Step size scaled by   0.152
 B after Tr=    -0.001993   -0.000232    0.003075
         Rot=    1.000000    0.000262    0.000079   -0.000173 Ang=   0.04 deg.
 Variable       Old X    -DE/DX   Delta X   Delta X   Delta X     New X
                                 (Linear)    (Quad)   (Total)
    X1       -0.66722   0.00214   0.00000  -0.02364  -0.02579  -0.69301
    Y1        2.12764  -0.00396   0.00000   0.00887   0.00646   2.13410
    Z1       -3.71157   0.00482   0.00000   0.01519   0.01703  -3.69454
    X2       -0.88413  -0.00013   0.00000  -0.00835  -0.01030  -0.89443
    Y2        2.39995  -0.00226   0.00000  -0.00859  -0.01201   2.38795
    Z2       -5.48620  -0.00862   0.00000   0.00845   0.01013  -5.47607
    X3       -1.27677  -0.00236   0.00000   0.02206   0.01926  -1.25752
    Y3        3.64642   0.01076   0.00000   0.03828   0.03607   3.68248
    Z3       -2.94194   0.00405   0.00000  -0.00137  -0.00043  -2.94237
    X4        3.67153  -0.00660   0.00000  -0.00168  -0.00359   3.66793
    Y4       -1.21188   0.00530   0.00000   0.01251   0.01466  -1.19722
    Z4        2.09523  -0.00311   0.00000   0.01403   0.01832   2.11355
    X5       -1.67836  -0.00822   0.00000   0.00322  -0.00089  -1.67926
    Y5        4.96684   0.00239   0.00000  -0.00634  -0.00581   4.96103
    Z5        2.57623   0.00391   0.00000  -0.01524  -0.01504   2.56119
    X6       -0.35364   0.00202   0.00000   0.01842   0.01475  -0.33889
    Y6        4.02689  -0.00629   0.00000   0.00686   0.00744   4.03433
    Z6        1.77990  -0.00652   0.00000  -0.01130  -0.01040   1.76950
    X7        1.16946   0.00717   0.00000   0.01087   0.00683   1.17628
    Y7        4.82776   0.00596   0.00000   0.01305   0.01446   4.84222
    Z7        2.33699   0.00221   0.00000   0.00741   0.00814   2.34513
    X8        4.63493   0.00310   0.00000  -0.00279  -0.00419   4.63075
    Y8       -2.73708  -0.00820   0.00000   0.00486   0.00738  -2.72970
    Z8        2.22052   0.00040   0.00000  -0.03393  -0.02869   2.19183
    X9        4.74983   0.00609   0.00000   0.01830   0.01584   4.76566
    Y9        0.06385   0.00538   0.00000  -0.00145   0.00144   0.06529
    Z9        2.78814   0.00550   0.00000   0.01377   0.01757   2.80571
   X10        1.13688  -0.00582   0.00000   0.01929   0.01882   1.15570
   Y10       -3.18995   0.00099   0.00000  -0.00938  -0.01059  -3.20054
   Z10       -2.62872   0.00211   0.00000   0.00607   0.01101  -2.61772
   X11        1.51044  -0.00037   0.00000   0.00363   0.00373   1.51416
   Y11       -4.93226  -0.00916   0.00000  -0.01816  -0.01909  -4.95135
   Z11       -2.31922   0.00049   0.00000  -0.01332  -0.00741  -2.32664
   X12        2.61857   0.00729   0.00000   0.01063   0.01007   2.62864
   Y12       -2.54745   0.00294   0.00000  -0.01680  -0.01794  -2.56538
   Z12       -3.44138  -0.00727   0.00000  -0.02082  -0.01598  -3.45736
   X13       -4.98899  -0.00274   0.00000   0.00599   0.00408  -4.98491
   Y13       -1.48514  -0.00288   0.00000  -0.01778  -0.01827  -1.50341
   Z13        2.79734   0.00829   0.00000  -0.00872  -0.00565   2.79170
   X14       -4.23461   0.00963   0.00000  -0.00541  -0.00735  -4.24196
   Y14       -0.75211   0.00414   0.00000  -0.00082  -0.00183  -0.75394
   Z14        1.32636  -0.00183   0.00000  -0.00909  -0.00629   1.32007
   X15       -5.38054  -0.00630   0.00000  -0.01796  -0.01956  -5.40010
   Y15       -1.14744  -0.00158   0.00000   0.01642   0.01431  -1.13313
   Z15       -0.01570  -0.00756   0.00000  -0.00678  -0.00396  -0.01967
   X16        0.00000  -0.00490   0.00000  -0.01970  -0.02169  -0.02169
   Y16       -0.00000  -0.00353   0.00000  -0.01644  -0.01667  -0.01667
   Z16        0.00000   0.00313   0.00000   0.00856   0.01165   0.01165
         Item               Value     Threshold  Converged?
 Maximum Force            0.010759     0.000450     NO 
 RMS     Force            0.005329     0.000300     NO 
 Maximum Displacement     0.036069     0.001800     NO 
 RMS     Displacement     0.014195     0.001200     NO 
 Predicted change in Energy=-1.025323D-03
 GradGradGradGradGradGradGradGradGradGradGradGradGradGradGradGradGradGrad

                          Input orientation:                          
 ---------------------------------------------------------------------
 Center     Atomic      Atomic             Coordinates (Angstroms)
 Number     Number       Type             X           Y           Z
 ---------------------------------------------------------------------
      1          8           0       -0.366727    1.129318   -1.955066
      2          1           0       -0.473312    1.263647   -2.897810
      3          1           0       -0.665450    1.948687   -1.557037
      4          8           0        1.940988   -0.633544    1.118445
      5          1           0       -0.888624    2.625265    1.355324
      6          8           0       -0.179333    2.134875    0.936379
      7          1           0        0.622462    2.562390    1.240987
      8          1           0        2.450485   -1.444494    1.159867
      9          1           0        2.521881    0.034551    1.484717
     10          8           0        0.611571   -1.693653   -1.385236
     11          1           0        0.801261   -2.620142   -1.231203
     12          1           0        1.391019   -1.357542   -1.829556
     13          1           0       -2.637903   -0.795570    1.477303
     14          8           0       -2.244751   -0.398967    0.698551
     15          1           0       -2.857609   -0.599628   -0.010408
     16         11           0       -0.011478   -0.008823    0.006163
 ---------------------------------------------------------------------
                    Distance matrix (angstroms):
                    1          2          3          4          5
     1  O    0.000000
     2  H    0.958212   0.000000
     3  H    0.958659   1.517850   0.000000
     4  O    4.228439   5.055539   4.540885   0.000000
     5  H    3.670002   4.485045   2.998234   4.322343   0.000000
     6  O    3.067037   3.942901   2.547175   3.491855   0.958692
     7  H    3.639636   4.474047   3.140746   3.459410   1.516709
     8  H    4.925850   5.687474   5.348298   0.958615   5.267901
     9  H    4.623276   5.448706   4.803671   0.958093   4.284866
    10  O    3.041535   3.494349   3.863539   3.026483   5.330507
    11  H    3.993323   4.414288   4.809533   3.281218   6.087703
    12  H    3.047933   3.389325   3.903137   3.085020   5.585963
    13  H    4.543632   5.297871   4.541887   4.595789   3.844082
    14  O    3.592258   4.340057   3.618474   4.213282   3.378818
    15  H    3.602144   4.182554   3.700207   4.929705   4.017718
    16  Na   2.295209   3.203986   2.589038   2.332289   3.086752
                    6          7          8          9         10
     6  O    0.000000
     7  H    0.958349   0.000000
     8  H    4.447220   4.404925   0.000000
     9  H    3.465341   3.171303   1.515981   0.000000
    10  O    4.546762   5.001107   3.149799   3.856501   0.000000
    11  H    5.316969   5.744766   3.133577   4.169430   0.958171
    12  H    4.723704   5.038331   3.172803   3.768445   0.958086
    13  H    3.863246   4.686334   5.139413   5.226139   4.422642
    14  O    3.277631   4.157498   4.832306   4.850440   3.765230
    15  H    3.942978   4.865722   5.500837   5.619297   3.888735
    16  Na   2.342844   2.921954   3.074646   2.933584   2.272186
                   11         12         13         14         15
    11  H    0.000000
    12  H    1.516575   0.000000
    13  H    4.742670   5.242455   0.000000
    14  O    4.235063   4.530896   0.958288   0.000000
    15  H    4.354326   4.683436   1.516557   0.958375   0.000000
    16  Na   3.001767   2.675052   3.111484   2.370469   2.906852
                   16
    16  Na   0.000000
 Stoichiometry    H10NaO5(1+)
 Framework group  C1[X(H10NaO5)]
 Deg. of freedom    42
 Full point group                 C1      NOp   1
 Largest Abelian subgroup         C1      NOp   1
 Largest concise Abelian subgroup C1      NOp   1
                         Standard orientation:                         
 ---------------------------------------------------------------------
 Center     Atomic      Atomic             Coordinates (Angstroms)
 Number     Number       Type             X           Y           Z
 ---------------------------------------------------------------------
      1          8           0       -0.645164   -1.357797   -1.550757
      2          1           0       -0.652685   -2.128770   -2.119717
      3          1           0       -1.497559   -0.942507   -1.692123
      4          8           0        1.661210    1.758399    0.137336
      5          1           0       -2.625493    1.487411   -0.345768
      6          8           0       -1.720681    1.365703   -0.638328
      7          1           0       -1.525101    2.151207   -1.151324
      8          1           0        2.577344    1.806648    0.415389
      9          1           0        1.524563    2.553220   -0.379898
     10          8           0        1.925962   -1.255750    0.070919
     11          1           0        2.685302   -1.316105    0.652169
     12          1           0        2.298479   -1.110918   -0.799818
     13          1           0       -1.425884   -0.350124    2.810397
     14          8           0       -1.304139   -0.653553    1.909605
     15          1           0       -1.461735   -1.598045    1.949377
     16         11           0        0.069570    0.053815    0.111919
 ---------------------------------------------------------------------
 Rotational constants (GHZ):           1.7142506           1.4496462           1.2910703
 Standard basis: Aug-CC-pVDZ (5D, 7F)
 There are   244 symmetry adapted cartesian basis functions of A   symmetry.
 There are   232 symmetry adapted basis functions of A   symmetry.
   232 basis functions,   406 primitive gaussians,   244 cartesian basis functions
    30 alpha electrons       30 beta electrons
       nuclear repulsion energy       308.4997756639 Hartrees.
 NAtoms=   16 NActive=   16 NUniq=   16 SFac= 1.00D+00 NAtFMM=   60 NAOKFM=F Big=F
 Integral buffers will be    131072 words long.
 Raffenetti 2 integral format.
 Two-electron integral symmetry is turned on.
 Nuclear repulsion after empirical dispersion term =      308.4916478122 Hartrees.
 One-electron integrals computed using PRISM.
 NBasis=   232 RedAO= T EigKep=  2.27D-04  NBF=   232
 NBsUse=   232 1.00D-06 EigRej= -1.00D+00 NBFU=   232
 Initial guess from the checkpoint file:  "sim009_type3_coord-5_4-1-0_10C_b1_id81769_step4300.chk"
 B after Tr=    -0.000000   -0.000000   -0.000000
         Rot=    0.999965   -0.007537   -0.002408    0.002808 Ang=  -0.96 deg.
 ExpMin= 6.16D-03 ExpMax= 3.17D+04 ExpMxC= 1.08D+03 IAcc=3 IRadAn=         5 AccDes= 0.00D+00
 Harris functional with IExCor=  402 and IRadAn=       5 diagonalized for initial guess.
 HarFok:  IExCor=  402 AccDes= 0.00D+00 IRadAn=         5 IDoV= 1 UseB2=F ITyADJ=14
 ICtDFT=  3500011 ScaDFX=  1.000000  1.000000  1.000000  1.000000
 FoFCou: FMM=F IPFlag=           0 FMFlag=      100000 FMFlg1=           0
         NFxFlg=           0 DoJE=T BraDBF=F KetDBF=T FulRan=T
         wScrn=  0.000000 ICntrl=       500 IOpCl=  0 I1Cent=   200000004 NGrid=           0
         NMat0=    1 NMatS0=      1 NMatT0=    0 NMatD0=    1 NMtDS0=    0 NMtDT0=    0
 Petite list used in FoFCou.
 Requested convergence on RMS density matrix=1.00D-08 within 500 cycles.
 Requested convergence on MAX density matrix=1.00D-06.
 Requested convergence on             energy=1.00D-06.
 No special actions if energy rises.
 SCF Done:  E(RB3LYP) =  -544.454095969     A.U. after    7 cycles
            NFock=  7  Conv=0.86D-08     -V/T= 2.0055
 DoSCS=F DFT=T ScalE2(SS,OS)=  1.000000  1.000000
 Range of M.O.s used for correlation:     1   232
 NBasis=   232 NAE=    30 NBE=    30 NFC=     0 NFV=     0
 NROrb=    232 NOA=    30 NOB=    30 NVA=   202 NVB=   202

 **** Warning!!: The largest alpha MO coefficient is  0.17653217D+02

 Symmetrizing basis deriv contribution to polar:
 IMax=3 JMax=2 DiffMx= 0.00D+00
 G2DrvN: will do    17 centers at a time, making    1 passes.
 Calling FoFCou, ICntrl=  3107 FMM=F I1Cent=   0 AccDes= 1.00D-11.
 End of G2Drv F.D. properties file   721 does not exist.
 End of G2Drv F.D. properties file   722 does not exist.
 End of G2Drv F.D. properties file   788 does not exist.
          IDoAtm=1111111111111111
          Differentiating once with respect to electric field.
                with respect to dipole field.
          Differentiating once with respect to nuclear coordinates.
 Keep R1 ints in memory in canonical form, NReq=408195318.
          There are    51 degrees of freedom in the 1st order CPHF.  IDoFFX=6 NUNeed=     3.
     48 vectors produced by pass  0 Test12= 1.19D-14 1.96D-09 XBig12= 2.19D+01 9.63D-01.
 AX will form    48 AO Fock derivatives at one time.
     48 vectors produced by pass  1 Test12= 1.19D-14 1.96D-09 XBig12= 1.76D+00 2.03D-01.
     48 vectors produced by pass  2 Test12= 1.19D-14 1.96D-09 XBig12= 1.88D-02 2.20D-02.
     48 vectors produced by pass  3 Test12= 1.19D-14 1.96D-09 XBig12= 4.16D-05 6.69D-04.
     48 vectors produced by pass  4 Test12= 1.19D-14 1.96D-09 XBig12= 5.28D-08 2.45D-05.
     23 vectors produced by pass  5 Test12= 1.19D-14 1.96D-09 XBig12= 4.15D-11 6.27D-07.
      3 vectors produced by pass  6 Test12= 1.19D-14 1.96D-09 XBig12= 2.77D-14 1.77D-08.
 InvSVY:  IOpt=1 It=  1 EMax= 6.22D-15
 Solved reduced A of dimension   266 with    51 vectors.
 Isotropic polarizability for W=    0.000000       46.33 Bohr**3.
 End of Minotr F.D. properties file   721 does not exist.
 End of Minotr F.D. properties file   722 does not exist.
 End of Minotr F.D. properties file   788 does not exist.
 Calling FoFJK, ICntrl=    100127 FMM=F ISym2X=0 I1Cent= 0 IOpClX= 0 NMat=1 NMatS=1 NMatT=0.
 ***** Axes restored to original set *****
 -------------------------------------------------------------------
 Center     Atomic                   Forces (Hartrees/Bohr)
 Number     Number              X              Y              Z
 -------------------------------------------------------------------
      1        8           0.001509863   -0.002845924    0.004385945
      2        1          -0.000163627   -0.002199729   -0.007170676
      3        1          -0.001555629    0.009184917    0.003086684
      4        8          -0.005265057    0.004547020   -0.002550264
      5        1          -0.007016141    0.001738906    0.003332431
      6        8           0.001807851   -0.005159739   -0.005593683
      7        1           0.006012935    0.005325471    0.001902103
      8        1           0.002253031   -0.006610736    0.000160831
      9        1           0.005339336    0.004477685    0.005026067
     10        8          -0.004597274    0.000684632    0.001934351
     11        1          -0.000461917   -0.007928153    0.000097777
     12        1           0.006057692    0.002235730   -0.006505387
     13        1          -0.002329679   -0.002424637    0.007006060
     14        8           0.008177573    0.003260390   -0.001569321
     15        1          -0.005490494   -0.001199229   -0.006351085
     16       11          -0.004278464   -0.003086605    0.002808167
 -------------------------------------------------------------------
 Cartesian Forces:  Max     0.009184917 RMS     0.004501935

 GradGradGradGradGradGradGradGradGradGradGradGradGradGradGradGradGradGrad
 Berny optimization.
 Search for a local minimum.
 Step number   2 out of a maximum of  500
 All quantities printed in internal units (Hartrees-Bohrs-Radians)
 Second derivative matrix not updated -- analytic derivatives used.
 DE= -1.02D-03 DEPred=-1.03D-03 R= 9.98D-01
 TightC=F SS=  1.41D+00  RLast= 9.83D-02 DXNew= 1.6818D-01 2.9503D-01
 Trust test= 9.98D-01 RLast= 9.83D-02 DXMaxT set to 1.68D-01
 ITU=  1  0
 Linear search step of   0.197 exceeds DXMaxT=   0.168 but not scaled.
 Quartic linear search produced a step of  2.00000.
 B after Tr=     0.000000   -0.000000   -0.000000
         Rot=    1.000000   -0.000000    0.000000   -0.000000 Ang=   0.00 deg.
 Variable       Old X    -DE/DX   Delta X   Delta X   Delta X     New X
                                 (Linear)    (Quad)   (Total)
    X1       -0.69301   0.00151  -0.05158   0.00000  -0.05158  -0.74459
    Y1        2.13410  -0.00285   0.01292   0.00000   0.01292   2.14702
    Z1       -3.69454   0.00439   0.03407   0.00000   0.03407  -3.66047
    X2       -0.89443  -0.00016  -0.02060   0.00000  -0.02060  -0.91503
    Y2        2.38795  -0.00220  -0.02401   0.00000  -0.02401   2.36394
    Z2       -5.47607  -0.00717   0.02026   0.00000   0.02026  -5.45581
    X3       -1.25752  -0.00156   0.03851   0.00000   0.03851  -1.21900
    Y3        3.68248   0.00918   0.07214   0.00000   0.07214   3.75462
    Z3       -2.94237   0.00309  -0.00086   0.00000  -0.00086  -2.94323
    X4        3.66793  -0.00527  -0.00719   0.00000  -0.00719   3.66075
    Y4       -1.19722   0.00455   0.02931   0.00000   0.02931  -1.16791
    Z4        2.11355  -0.00255   0.03664   0.00000   0.03664   2.15020
    X5       -1.67926  -0.00702  -0.00179   0.00000  -0.00179  -1.68105
    Y5        4.96103   0.00174  -0.01162   0.00000  -0.01162   4.94941
    Z5        2.56119   0.00333  -0.03007   0.00000  -0.03007   2.53112
    X6       -0.33889   0.00181   0.02951   0.00000   0.02951  -0.30939
    Y6        4.03433  -0.00516   0.01487   0.00000   0.01487   4.04920
    Z6        1.76950  -0.00559  -0.02079   0.00000  -0.02079   1.74871
    X7        1.17628   0.00601   0.01365   0.00000   0.01365   1.18994
    Y7        4.84222   0.00533   0.02891   0.00000   0.02891   4.87113
    Z7        2.34513   0.00190   0.01628   0.00000   0.01628   2.36140
    X8        4.63075   0.00225  -0.00837   0.00000  -0.00837   4.62237
    Y8       -2.72970  -0.00661   0.01476   0.00000   0.01476  -2.71493
    Z8        2.19183   0.00016  -0.05738   0.00000  -0.05738   2.13445
    X9        4.76566   0.00534   0.03167   0.00000   0.03167   4.79734
    Y9        0.06529   0.00448   0.00288   0.00000   0.00288   0.06817
    Z9        2.80571   0.00503   0.03514   0.00000   0.03514   2.84085
   X10        1.15570  -0.00460   0.03765   0.00000   0.03765   1.19335
   Y10       -3.20054   0.00068  -0.02117   0.00000  -0.02117  -3.22171
   Z10       -2.61772   0.00193   0.02201   0.00000   0.02201  -2.59571
   X11        1.51416  -0.00046   0.00745   0.00000   0.00745   1.52162
   Y11       -4.95135  -0.00793  -0.03818   0.00000  -0.03818  -4.98953
   Z11       -2.32664   0.00010  -0.01483   0.00000  -0.01483  -2.34146
   X12        2.62864   0.00606   0.02014   0.00000   0.02014   2.64878
   Y12       -2.56538   0.00224  -0.03588   0.00000  -0.03588  -2.60126
   Z12       -3.45736  -0.00651  -0.03196   0.00000  -0.03196  -3.48932
   X13       -4.98491  -0.00233   0.00815   0.00000   0.00815  -4.97676
   Y13       -1.50341  -0.00242  -0.03655   0.00000  -0.03655  -1.53996
   Z13        2.79170   0.00701  -0.01129   0.00000  -0.01129   2.78041
   X14       -4.24196   0.00818  -0.01471   0.00000  -0.01471  -4.25667
   Y14       -0.75394   0.00326  -0.00365   0.00000  -0.00365  -0.75759
   Z14        1.32007  -0.00157  -0.01258   0.00000  -0.01258   1.30749
   X15       -5.40010  -0.00549  -0.03912   0.00000  -0.03912  -5.43921
   Y15       -1.13313  -0.00120   0.02862   0.00000   0.02862  -1.10451
   Z15       -0.01967  -0.00635  -0.00793   0.00000  -0.00793  -0.02760
   X16       -0.02169  -0.00428  -0.04338   0.00000  -0.04338  -0.06507
   Y16       -0.01667  -0.00309  -0.03335   0.00000  -0.03335  -0.05002
   Z16        0.01165   0.00281   0.02329   0.00000   0.02329   0.03494
         Item               Value     Threshold  Converged?
 Maximum Force            0.009185     0.000450     NO 
 RMS     Force            0.004502     0.000300     NO 
 Maximum Displacement     0.072138     0.001800     NO 
 RMS     Displacement     0.028389     0.001200     NO 
 Predicted change in Energy=-1.817892D-03
 GradGradGradGradGradGradGradGradGradGradGradGradGradGradGradGradGradGrad

                          Input orientation:                          
 ---------------------------------------------------------------------
 Center     Atomic      Atomic             Coordinates (Angstroms)
 Number     Number       Type             X           Y           Z
 ---------------------------------------------------------------------
      1          8           0       -0.394021    1.136154   -1.937039
      2          1           0       -0.484215    1.250941   -2.887090
      3          1           0       -0.645069    1.986860   -1.557491
      4          8           0        1.937183   -0.618031    1.137835
      5          1           0       -0.889571    2.619115    1.339411
      6          8           0       -0.163720    2.142744    0.925377
      7          1           0        0.629687    2.577691    1.249601
      8          1           0        2.446055   -1.436681    1.129502
      9          1           0        2.538642    0.036073    1.503312
     10          8           0        0.631494   -1.704858   -1.373589
     11          1           0        0.805204   -2.640347   -1.239048
     12          1           0        1.401676   -1.376526   -1.846468
     13          1           0       -2.633590   -0.814910    1.471328
     14          8           0       -2.252533   -0.400901    0.691894
     15          1           0       -2.878308   -0.584483   -0.014603
     16         11           0       -0.034435   -0.026470    0.018488
 ---------------------------------------------------------------------
                    Distance matrix (angstroms):
                    1          2          3          4          5
     1  O    0.000000
     2  H    0.961202   0.000000
     3  H    0.964771   1.528164   0.000000
     4  O    4.238693   5.055318   4.551732   0.000000
     5  H    3.630408   4.460888   2.975158   4.302358   0.000000
     6  O    3.042973   3.928478   2.533897   3.475746   0.961880
     7  H    3.644267   4.484781   3.139084   3.454660   1.522474
     8  H    4.908073   5.651797   5.338129   0.963954   5.255468
     9  H    4.652601   5.467101   4.828053   0.960822   4.295533
    10  O    3.072540   3.503176   3.910526   3.032039   5.326419
    11  H    4.023343   4.418231   4.859603   3.319745   6.097757
    12  H    3.089708   3.397509   3.947790   3.125403   5.600427
    13  H    4.520982   5.280469   4.580161   4.587149   3.853768
    14  O    3.567618   4.320262   3.653092   4.218973   3.376009
    15  H    3.581624   4.165530   3.738940   4.951585   4.006429
    16  Na   2.303276   3.205693   2.628704   2.343109   3.078183
                    6          7          8          9         10
     6  O    0.000000
     7  H    0.961142   0.000000
     8  H    4.434510   4.407811   0.000000
     9  H    3.474885   3.188776   1.522272   0.000000
    10  O    4.552104   5.022086   3.103227   3.865826   0.000000
    11  H    5.338680   5.783779   3.122696   4.205778   0.960945
    12  H    4.745403   5.081087   3.154480   3.809089   0.961560
    13  H    3.891791   4.712524   5.128960   5.241867   4.421123
    14  O    3.299664   4.182134   4.831260   4.879006   3.779436
    15  H    3.961101   4.889130   5.512174   5.659727   3.926932
    16  Na   2.354709   2.956071   3.062006   2.971420   2.279983
                   11         12         13         14         15
    11  H    0.000000
    12  H    1.523804   0.000000
    13  H    4.743802   5.254194   0.000000
    14  O    4.253635   4.555039   0.961313   0.000000
    15  H    4.392505   4.722428   1.523475   0.961476   0.000000
    16  Na   3.019725   2.713509   3.080257   2.348113   2.898291
                   16
    16  Na   0.000000
 Stoichiometry    H10NaO5(1+)
 Framework group  C1[X(H10NaO5)]
 Deg. of freedom    42
 Full point group                 C1      NOp   1
 Largest Abelian subgroup         C1      NOp   1
 Largest concise Abelian subgroup C1      NOp   1
                         Standard orientation:                         
 ---------------------------------------------------------------------
 Center     Atomic      Atomic             Coordinates (Angstroms)
 Number     Number       Type             X           Y           Z
 ---------------------------------------------------------------------
      1          8           0       -0.700555   -1.300382   -1.571334
      2          1           0       -0.697160   -2.056903   -2.164269
      3          1           0       -1.535320   -0.849422   -1.746223
      4          8           0        1.671669    1.748429    0.173324
      5          1           0       -2.599720    1.513780   -0.285436
      6          8           0       -1.698645    1.406799   -0.604547
      7          1           0       -1.511673    2.218828   -1.083552
      8          1           0        2.603620    1.734289    0.419240
      9          1           0        1.564802    2.566003   -0.319963
     10          8           0        1.932889   -1.267984    0.011205
     11          1           0        2.695149   -1.382662    0.584985
     12          1           0        2.302723   -1.130856   -0.865730
     13          1           0       -1.383502   -0.429758    2.812144
     14          8           0       -1.294660   -0.707666    1.896176
     15          1           0       -1.485574   -1.649950    1.905674
     16         11           0        0.069188    0.039371    0.136776
 ---------------------------------------------------------------------
 Rotational constants (GHZ):           1.7117045           1.4469374           1.2861487
 Standard basis: Aug-CC-pVDZ (5D, 7F)
 There are   244 symmetry adapted cartesian basis functions of A   symmetry.
 There are   232 symmetry adapted basis functions of A   symmetry.
   232 basis functions,   406 primitive gaussians,   244 cartesian basis functions
    30 alpha electrons       30 beta electrons
       nuclear repulsion energy       307.9221743332 Hartrees.
 NAtoms=   16 NActive=   16 NUniq=   16 SFac= 1.00D+00 NAtFMM=   60 NAOKFM=F Big=F
 Integral buffers will be    131072 words long.
 Raffenetti 2 integral format.
 Two-electron integral symmetry is turned on.
 Nuclear repulsion after empirical dispersion term =      307.9140351660 Hartrees.
 One-electron integrals computed using PRISM.
 NBasis=   232 RedAO= T EigKep=  2.31D-04  NBF=   232
 NBsUse=   232 1.00D-06 EigRej= -1.00D+00 NBFU=   232
 Initial guess from the checkpoint file:  "sim009_type3_coord-5_4-1-0_10C_b1_id81769_step4300.chk"
 B after Tr=     0.000000    0.000000   -0.000000
         Rot=    0.999864   -0.014883   -0.004661    0.005281 Ang=  -1.89 deg.
 ExpMin= 6.16D-03 ExpMax= 3.17D+04 ExpMxC= 1.08D+03 IAcc=3 IRadAn=         5 AccDes= 0.00D+00
 Harris functional with IExCor=  402 and IRadAn=       5 diagonalized for initial guess.
 HarFok:  IExCor=  402 AccDes= 0.00D+00 IRadAn=         5 IDoV= 1 UseB2=F ITyADJ=14
 ICtDFT=  3500011 ScaDFX=  1.000000  1.000000  1.000000  1.000000
 FoFCou: FMM=F IPFlag=           0 FMFlag=      100000 FMFlg1=           0
         NFxFlg=           0 DoJE=T BraDBF=F KetDBF=T FulRan=T
         wScrn=  0.000000 ICntrl=       500 IOpCl=  0 I1Cent=   200000004 NGrid=           0
         NMat0=    1 NMatS0=      1 NMatT0=    0 NMatD0=    1 NMtDS0=    0 NMtDT0=    0
 Petite list used in FoFCou.
 Requested convergence on RMS density matrix=1.00D-08 within 500 cycles.
 Requested convergence on MAX density matrix=1.00D-06.
 Requested convergence on             energy=1.00D-06.
 No special actions if energy rises.
 SCF Done:  E(RB3LYP) =  -544.455870685     A.U. after    9 cycles
            NFock=  9  Conv=0.11D-08     -V/T= 2.0056
 DoSCS=F DFT=T ScalE2(SS,OS)=  1.000000  1.000000
 Range of M.O.s used for correlation:     1   232
 NBasis=   232 NAE=    30 NBE=    30 NFC=     0 NFV=     0
 NROrb=    232 NOA=    30 NOB=    30 NVA=   202 NVB=   202

 **** Warning!!: The largest alpha MO coefficient is  0.16577891D+02

 Symmetrizing basis deriv contribution to polar:
 IMax=3 JMax=2 DiffMx= 0.00D+00
 G2DrvN: will do    17 centers at a time, making    1 passes.
 Calling FoFCou, ICntrl=  3107 FMM=F I1Cent=   0 AccDes= 1.00D-11.
 End of G2Drv F.D. properties file   721 does not exist.
 End of G2Drv F.D. properties file   722 does not exist.
 End of G2Drv F.D. properties file   788 does not exist.
          IDoAtm=1111111111111111
          Differentiating once with respect to electric field.
                with respect to dipole field.
          Differentiating once with respect to nuclear coordinates.
 Keep R1 ints in memory in canonical form, NReq=408195318.
          There are    51 degrees of freedom in the 1st order CPHF.  IDoFFX=6 NUNeed=     3.
     48 vectors produced by pass  0 Test12= 1.19D-14 1.96D-09 XBig12= 2.21D+01 9.57D-01.
 AX will form    48 AO Fock derivatives at one time.
     48 vectors produced by pass  1 Test12= 1.19D-14 1.96D-09 XBig12= 1.83D+00 2.07D-01.
     48 vectors produced by pass  2 Test12= 1.19D-14 1.96D-09 XBig12= 2.07D-02 2.36D-02.
     48 vectors produced by pass  3 Test12= 1.19D-14 1.96D-09 XBig12= 4.43D-05 7.15D-04.
     48 vectors produced by pass  4 Test12= 1.19D-14 1.96D-09 XBig12= 5.40D-08 2.59D-05.
     25 vectors produced by pass  5 Test12= 1.19D-14 1.96D-09 XBig12= 4.28D-11 6.46D-07.
      3 vectors produced by pass  6 Test12= 1.19D-14 1.96D-09 XBig12= 2.87D-14 1.72D-08.
 InvSVY:  IOpt=1 It=  1 EMax= 4.44D-15
 Solved reduced A of dimension   268 with    51 vectors.
 Isotropic polarizability for W=    0.000000       46.59 Bohr**3.
 End of Minotr F.D. properties file   721 does not exist.
 End of Minotr F.D. properties file   722 does not exist.
 End of Minotr F.D. properties file   788 does not exist.
 Calling FoFJK, ICntrl=    100127 FMM=F ISym2X=0 I1Cent= 0 IOpClX= 0 NMat=1 NMatS=1 NMatT=0.
 ***** Axes restored to original set *****
 -------------------------------------------------------------------
 Center     Atomic                   Forces (Hartrees/Bohr)
 Number     Number              X              Y              Z
 -------------------------------------------------------------------
      1        8          -0.000265965    0.001916334    0.003958548
      2        1          -0.000188831   -0.002037291   -0.003831570
      3        1           0.000482090    0.003466910    0.000243298
      4        8          -0.001285200    0.001609941   -0.001549275
      5        1          -0.004299897    0.000355069    0.002067474
      6        8           0.001337635   -0.002639674   -0.003460694
      7        1           0.003432471    0.003891874    0.001116865
      8        1          -0.000431558   -0.001799831   -0.000035663
      9        1           0.003511294    0.002442445    0.003902709
     10        8          -0.001469226   -0.000307047    0.001156600
     11        1          -0.000766942   -0.004997997   -0.000654423
     12        1           0.003055054    0.000721370   -0.004555790
     13        1          -0.001498804   -0.001309033    0.004146785
     14        8           0.004969058    0.001335298   -0.001014409
     15        1          -0.003627099   -0.000488978   -0.003656648
     16       11          -0.002954082   -0.002159390    0.002166192
 -------------------------------------------------------------------
 Cartesian Forces:  Max     0.004997997 RMS     0.002580740

 GradGradGradGradGradGradGradGradGradGradGradGradGradGradGradGradGradGrad
 Berny optimization.
 Search for a local minimum.
 Step number   3 out of a maximum of  500
 All quantities printed in internal units (Hartrees-Bohrs-Radians)
 Second derivative matrix not updated -- analytic derivatives used.
 ITU=  0  1  0
 Linear search step of   0.322 exceeds DXMaxT=   0.168 but not scaled.
 Quartic linear search produced a step of  1.63480.
 B after Tr=    -0.000000    0.000000    0.000000
         Rot=    1.000000    0.000000    0.000000    0.000000 Ang=   0.00 deg.
 Variable       Old X    -DE/DX   Delta X   Delta X   Delta X     New X
                                 (Linear)    (Quad)   (Total)
    X1       -0.74459  -0.00027  -0.08432   0.00000  -0.08432  -0.82891
    Y1        2.14702   0.00192   0.02112   0.00000   0.02112   2.16814
    Z1       -3.66047   0.00396   0.05569   0.00000   0.05569  -3.60478
    X2       -0.91503  -0.00019  -0.03368   0.00000  -0.03368  -0.94872
    Y2        2.36394  -0.00204  -0.03925   0.00000  -0.03925   2.32468
    Z2       -5.45581  -0.00383   0.03312   0.00000   0.03312  -5.42269
    X3       -1.21900   0.00048   0.06296   0.00000   0.06296  -1.15604
    Y3        3.75462   0.00347   0.11793   0.00000   0.11793   3.87255
    Z3       -2.94323   0.00024  -0.00140   0.00000  -0.00140  -2.94463
    X4        3.66075  -0.00129  -0.01175   0.00000  -0.01175   3.64899
    Y4       -1.16791   0.00161   0.04792   0.00000   0.04792  -1.11999
    Z4        2.15020  -0.00155   0.05990   0.00000   0.05990   2.21010
    X5       -1.68105  -0.00430  -0.00293   0.00000  -0.00293  -1.68397
    Y5        4.94941   0.00036  -0.01900   0.00000  -0.01900   4.93041
    Z5        2.53112   0.00207  -0.04916   0.00000  -0.04916   2.48196
    X6       -0.30939   0.00134   0.04824   0.00000   0.04824  -0.26115
    Y6        4.04920  -0.00264   0.02431   0.00000   0.02431   4.07351
    Z6        1.74871  -0.00346  -0.03399   0.00000  -0.03399   1.71472
    X7        1.18994   0.00343   0.02232   0.00000   0.02232   1.21226
    Y7        4.87113   0.00389   0.04727   0.00000   0.04727   4.91840
    Z7        2.36140   0.00112   0.02661   0.00000   0.02661   2.38801
    X8        4.62237  -0.00043  -0.01369   0.00000  -0.01369   4.60869
    Y8       -2.71493  -0.00180   0.02414   0.00000   0.02414  -2.69080
    Z8        2.13445  -0.00004  -0.09381   0.00000  -0.09381   2.04064
    X9        4.79734   0.00351   0.05178   0.00000   0.05178   4.84912
    Y9        0.06817   0.00244   0.00470   0.00000   0.00470   0.07287
    Z9        2.84085   0.00390   0.05745   0.00000   0.05745   2.89829
   X10        1.19335  -0.00147   0.06155   0.00000   0.06155   1.25490
   Y10       -3.22171  -0.00031  -0.03462   0.00000  -0.03462  -3.25633
   Z10       -2.59571   0.00116   0.03598   0.00000   0.03598  -2.55972
   X11        1.52162  -0.00077   0.01218   0.00000   0.01218   1.53380
   Y11       -4.98953  -0.00500  -0.06242   0.00000  -0.06242  -5.05195
   Z11       -2.34146  -0.00065  -0.02424   0.00000  -0.02424  -2.36570
   X12        2.64878   0.00306   0.03292   0.00000   0.03292   2.68171
   Y12       -2.60126   0.00072  -0.05865   0.00000  -0.05865  -2.65991
   Z12       -3.48932  -0.00456  -0.05225   0.00000  -0.05225  -3.54157
   X13       -4.97676  -0.00150   0.01333   0.00000   0.01333  -4.96344
   Y13       -1.53996  -0.00131  -0.05975   0.00000  -0.05975  -1.59970
   Z13        2.78041   0.00415  -0.01846   0.00000  -0.01846   2.76195
   X14       -4.25667   0.00497  -0.02404   0.00000  -0.02404  -4.28071
   Y14       -0.75759   0.00134  -0.00597   0.00000  -0.00597  -0.76357
   Z14        1.30749  -0.00101  -0.02057   0.00000  -0.02057   1.28693
   X15       -5.43921  -0.00363  -0.06395   0.00000  -0.06395  -5.50316
   Y15       -1.10451  -0.00049   0.04679   0.00000   0.04679  -1.05773
   Z15       -0.02760  -0.00366  -0.01296   0.00000  -0.01296  -0.04056
   X16       -0.06507  -0.00295  -0.07092   0.00000  -0.07092  -0.13599
   Y16       -0.05002  -0.00216  -0.05452   0.00000  -0.05452  -0.10454
   Z16        0.03494   0.00217   0.03808   0.00000   0.03808   0.07301
         Item               Value     Threshold  Converged?
 Maximum Force            0.004998     0.000450     NO 
 RMS     Force            0.002581     0.000300     NO 
 Maximum Displacement     0.117931     0.001800     NO 
 RMS     Displacement     0.046410     0.001200     NO 
 Predicted change in Energy=-1.690537D-03
 GradGradGradGradGradGradGradGradGradGradGradGradGradGradGradGradGradGrad

                          Input orientation:                          
 ---------------------------------------------------------------------
 Center     Atomic      Atomic             Coordinates (Angstroms)
 Number     Number       Type             X           Y           Z
 ---------------------------------------------------------------------
      1          8           0       -0.438641    1.147329   -1.907567
      2          1           0       -0.502040    1.230169   -2.869565
      3          1           0       -0.611750    2.049267   -1.558234
      4          8           0        1.930963   -0.592672    1.169533
      5          1           0       -0.891119    2.609060    1.313396
      6          8           0       -0.138195    2.155609    0.907391
      7          1           0        0.641499    2.602704    1.263683
      8          1           0        2.438813   -1.423909    1.079862
      9          1           0        2.566043    0.038562    1.533711
     10          8           0        0.664064   -1.723176   -1.354547
     11          1           0        0.811650   -2.673377   -1.251873
     12          1           0        1.419099   -1.407562   -1.874116
     13          1           0       -2.626538   -0.846527    1.461560
     14          8           0       -2.265256   -0.404062    0.681012
     15          1           0       -2.912147   -0.559725   -0.021463
     16         11           0       -0.071965   -0.055320    0.038638
 ---------------------------------------------------------------------
                    Distance matrix (angstroms):
                    1          2          3          4          5
     1  O    0.000000
     2  H    0.967637   0.000000
     3  H    0.982595   1.550015   0.000000
     4  O    4.255722   5.055350   4.570113   0.000000
     5  H    3.565950   4.421526   2.938992   4.270355   0.000000
     6  O    3.005144   3.905666   2.512941   3.450098   0.968170
     7  H    3.652622   4.502808   3.136900   3.447029   1.533437
     8  H    4.880137   5.593811   5.322446   0.978217   5.235249
     9  H    4.701051   5.497445   4.868411   0.966648   4.313695
    10  O    3.124354   3.518142   3.987545   3.042048   5.320225
    11  H    4.073200   4.424972   4.941992   3.383105   6.114260
    12  H    3.159080   3.411645   4.021666   3.192154   5.624108
    13  H    4.484793   5.252123   4.643721   4.573897   3.869717
    14  O    3.527616   4.287917   3.710407   4.228768   3.371508
    15  H    3.548190   4.138118   3.802674   4.987511   3.988433
    16  Na   2.317008   3.208596   2.696414   2.362073   3.065117
                    6          7          8          9         10
     6  O    0.000000
     7  H    0.966830   0.000000
     8  H    4.414030   4.413360   0.000000
     9  H    3.490997   3.217392   1.536551   0.000000
    10  O    4.561245   5.056568   3.027481   3.881144   0.000000
    11  H    5.374359   5.847564   3.105771   4.265206   0.967060
    12  H    4.781018   5.150988   3.125070   3.875569   0.969351
    13  H    3.938499   4.755672   5.112420   5.267967   4.418940
    14  O    3.335799   4.222484   4.829848   4.925897   3.803219
    15  H    3.991318   4.927571   5.531049   5.726000   3.989990
    16  Na   2.376410   3.012451   3.043220   3.033668   2.294439
                   11         12         13         14         15
    11  H    0.000000
    12  H    1.535731   0.000000
    13  H    4.745654   5.273393   0.000000
    14  O    4.284061   4.594579   0.967241   0.000000
    15  H    4.455121   4.786528   1.537265   0.967558   0.000000
    16  Na   3.049659   2.776771   3.029283   2.311880   2.885250
                   16
    16  Na   0.000000
 Stoichiometry    H10NaO5(1+)
 Framework group  C1[X(H10NaO5)]
 Deg. of freedom    42
 Full point group                 C1      NOp   1
 Largest Abelian subgroup         C1      NOp   1
 Largest concise Abelian subgroup C1      NOp   1
                         Standard orientation:                         
 ---------------------------------------------------------------------
 Center     Atomic      Atomic             Coordinates (Angstroms)
 Number     Number       Type             X           Y           Z
 ---------------------------------------------------------------------
      1          8           0       -0.786093   -1.207956   -1.598239
      2          1           0       -0.763219   -1.941187   -2.229246
      3          1           0       -1.592934   -0.695546   -1.826135
      4          8           0        1.686318    1.733334    0.231287
      5          1           0       -2.559002    1.547742   -0.191494
      6          8           0       -1.663501    1.468634   -0.550902
      7          1           0       -1.489752    2.321196   -0.972458
      8          1           0        2.640089    1.622427    0.418180
      9          1           0        1.628175    2.584319   -0.223523
     10          8           0        1.945399   -1.281296   -0.083260
     11          1           0        2.709945   -1.482060    0.473847
     12          1           0        2.310010   -1.156517   -0.972715
     13          1           0       -1.318042   -0.559642    2.807450
     14          8           0       -1.281488   -0.794451    1.869855
     15          1           0       -1.525694   -1.729940    1.832531
     16         11           0        0.068668    0.013009    0.175784
 ---------------------------------------------------------------------
 Rotational constants (GHZ):           1.7070695           1.4420439           1.2769185
 Standard basis: Aug-CC-pVDZ (5D, 7F)
 There are   244 symmetry adapted cartesian basis functions of A   symmetry.
 There are   232 symmetry adapted basis functions of A   symmetry.
   232 basis functions,   406 primitive gaussians,   244 cartesian basis functions
    30 alpha electrons       30 beta electrons
       nuclear repulsion energy       306.8314145820 Hartrees.
 NAtoms=   16 NActive=   16 NUniq=   16 SFac= 1.00D+00 NAtFMM=   60 NAOKFM=F Big=F
 Integral buffers will be    131072 words long.
 Raffenetti 2 integral format.
 Two-electron integral symmetry is turned on.
 Nuclear repulsion after empirical dispersion term =      306.8232333264 Hartrees.
 One-electron integrals computed using PRISM.
 NBasis=   232 RedAO= T EigKep=  2.42D-04  NBF=   232
 NBsUse=   232 1.00D-06 EigRej= -1.00D+00 NBFU=   232
 Initial guess from the checkpoint file:  "sim009_type3_coord-5_4-1-0_10C_b1_id81769_step4300.chk"
 B after Tr=     0.000000   -0.000000   -0.000000
         Rot=    0.999666   -0.023580   -0.007154    0.007736 Ang=  -2.96 deg.
 ExpMin= 6.16D-03 ExpMax= 3.17D+04 ExpMxC= 1.08D+03 IAcc=3 IRadAn=         5 AccDes= 0.00D+00
 Harris functional with IExCor=  402 and IRadAn=       5 diagonalized for initial guess.
 HarFok:  IExCor=  402 AccDes= 0.00D+00 IRadAn=         5 IDoV= 1 UseB2=F ITyADJ=14
 ICtDFT=  3500011 ScaDFX=  1.000000  1.000000  1.000000  1.000000
 FoFCou: FMM=F IPFlag=           0 FMFlag=      100000 FMFlg1=           0
         NFxFlg=           0 DoJE=T BraDBF=F KetDBF=T FulRan=T
         wScrn=  0.000000 ICntrl=       500 IOpCl=  0 I1Cent=   200000004 NGrid=           0
         NMat0=    1 NMatS0=      1 NMatT0=    0 NMatD0=    1 NMtDS0=    0 NMtDT0=    0
 Petite list used in FoFCou.
 Requested convergence on RMS density matrix=1.00D-08 within 500 cycles.
 Requested convergence on MAX density matrix=1.00D-06.
 Requested convergence on             energy=1.00D-06.
 No special actions if energy rises.
 SCF Done:  E(RB3LYP) =  -544.457286823     A.U. after    9 cycles
            NFock=  9  Conv=0.19D-08     -V/T= 2.0059
 DoSCS=F DFT=T ScalE2(SS,OS)=  1.000000  1.000000
 Range of M.O.s used for correlation:     1   232
 NBasis=   232 NAE=    30 NBE=    30 NFC=     0 NFV=     0
 NROrb=    232 NOA=    30 NOB=    30 NVA=   202 NVB=   202

 **** Warning!!: The largest alpha MO coefficient is  0.14460342D+02

 Symmetrizing basis deriv contribution to polar:
 IMax=3 JMax=2 DiffMx= 0.00D+00
 G2DrvN: will do    17 centers at a time, making    1 passes.
 Calling FoFCou, ICntrl=  3107 FMM=F I1Cent=   0 AccDes= 1.00D-11.
 End of G2Drv F.D. properties file   721 does not exist.
 End of G2Drv F.D. properties file   722 does not exist.
 End of G2Drv F.D. properties file   788 does not exist.
          IDoAtm=1111111111111111
          Differentiating once with respect to electric field.
                with respect to dipole field.
          Differentiating once with respect to nuclear coordinates.
 Keep R1 ints in memory in canonical form, NReq=408195318.
          There are    51 degrees of freedom in the 1st order CPHF.  IDoFFX=6 NUNeed=     3.
     48 vectors produced by pass  0 Test12= 1.19D-14 1.96D-09 XBig12= 2.26D+01 1.06D+00.
 AX will form    48 AO Fock derivatives at one time.
     48 vectors produced by pass  1 Test12= 1.19D-14 1.96D-09 XBig12= 1.98D+00 2.25D-01.
     48 vectors produced by pass  2 Test12= 1.19D-14 1.96D-09 XBig12= 2.52D-02 2.57D-02.
     48 vectors produced by pass  3 Test12= 1.19D-14 1.96D-09 XBig12= 5.21D-05 9.68D-04.
     48 vectors produced by pass  4 Test12= 1.19D-14 1.96D-09 XBig12= 5.86D-08 1.99D-05.
     25 vectors produced by pass  5 Test12= 1.19D-14 1.96D-09 XBig12= 4.33D-11 5.65D-07.
      3 vectors produced by pass  6 Test12= 1.19D-14 1.96D-09 XBig12= 3.22D-14 1.52D-08.
 InvSVY:  IOpt=1 It=  1 EMax= 2.66D-15
 Solved reduced A of dimension   268 with    51 vectors.
 Isotropic polarizability for W=    0.000000       47.18 Bohr**3.
 End of Minotr F.D. properties file   721 does not exist.
 End of Minotr F.D. properties file   722 does not exist.
 End of Minotr F.D. properties file   788 does not exist.
 Calling FoFJK, ICntrl=    100127 FMM=F ISym2X=0 I1Cent= 0 IOpClX= 0 NMat=1 NMatS=1 NMatT=0.
 ***** Axes restored to original set *****
 -------------------------------------------------------------------
 Center     Atomic                   Forces (Hartrees/Bohr)
 Number     Number              X              Y              Z
 -------------------------------------------------------------------
      1        8          -0.003061922    0.016170098    0.003598598
      2        1          -0.000190810   -0.001598511    0.002765425
      3        1           0.003553081   -0.012468623   -0.005951911
      4        8           0.008472965   -0.006685047   -0.001095195
      5        1           0.001009918   -0.002036267   -0.000245879
      6        8           0.000399550    0.002154659    0.000844180
      7        1          -0.001469302    0.001065314   -0.000700704
      8        1          -0.007121091    0.010004177    0.001233347
      9        1          -0.000418205   -0.001402734    0.001612732
     10        8           0.005194453   -0.003064100   -0.001579083
     11        1          -0.001511583    0.001083465   -0.001644967
     12        1          -0.003112543   -0.001937770   -0.000096723
     13        1          -0.000193774    0.001124299   -0.001249657
     14        8          -0.001087916   -0.002238657   -0.000026544
     15        1           0.000096584    0.000429931    0.001426580
     16       11          -0.000559404   -0.000600233    0.001109799
 -------------------------------------------------------------------
 Cartesian Forces:  Max     0.016170098 RMS     0.004229097

 GradGradGradGradGradGradGradGradGradGradGradGradGradGradGradGradGradGrad
 Berny optimization.
 Search for a local minimum.
 Step number   4 out of a maximum of  500
 All quantities printed in internal units (Hartrees-Bohrs-Radians)
 Second derivative matrix not updated -- analytic derivatives used.
 ITU=  0  0  1  0
     Eigenvalues ---   -0.00027  -0.00008   0.00028   0.00048   0.00055
     Eigenvalues ---    0.00114   0.00158   0.00192   0.00216   0.00245
[...]

 ----------------------------------------------------------------------

 Dipole orientation:
     8         -1.30125729         -4.14058502         -0.02650446
     1         -1.25923621         -5.77851343          0.77387885
     1         -1.44018060         -4.45240049         -1.82507253
     8          3.97290643          2.61736323         -0.70790981
     1         -2.58720298         -0.09716433         -4.28797276
     8         -0.95610816         -0.92412019         -4.32739534
     1         -0.42259668         -0.90406387         -6.07162330
     1          4.83321060          2.98539306          0.85983130
     1          4.86216777          3.54486581         -2.00098604
     8          2.31768968          0.43047384          4.12935244
     1          1.54666847          1.42345673          5.45407487
     1          3.33694125         -0.80224379          5.01083662
     1         -5.12183816          1.92432848          0.53059017
     8         -3.84239324          0.71849517          0.04516129
     1         -4.46327126         -0.92171488          0.56662493
    11          0.59733526         -0.03246172         -0.09626872

 Electric dipole moment (dipole orientation):
 (Debye = 10**-18 statcoulomb cm , SI units = C m)
                  (au)            (Debye)         (10**-30 SI)
   Tot        0.346678D+00      0.881168D+00      0.293926D+01
   x          0.000000D+00      0.000000D+00      0.000000D+00
   y          0.000000D+00      0.000000D+00      0.000000D+00
   z          0.346678D+00      0.881168D+00      0.293926D+01

 Dipole polarizability, Alpha (dipole orientation).
 (esu units = cm**3 , SI units = C**2 m**2 J**-1)
 Alpha(0;0):
               (au)            (10**-24 esu)      (10**-40 SI)
   iso        0.473573D+02      0.701762D+01      0.780816D+01
   aniso      0.325830D+01      0.482830D+00      0.537220D+00
   xx         0.461061D+02      0.683222D+01      0.760186D+01
   yx         0.619928D-02      0.918639D-03      0.102212D-02
   yy         0.469512D+02      0.695745D+01      0.774120D+01
   zx        -0.635278D+00     -0.941385D-01     -0.104743D+00
   zy        -0.946983D+00     -0.140328D+00     -0.156136D+00
   zz         0.490145D+02      0.726320D+01      0.808140D+01

 ----------------------------------------------------------------------

 Test job not archived.
 1\1\GINC-N685\Freq\RB3LYP\Aug-CC-pVDZ\H10Na1O5(1+)\HNR2\18-Jul-2022\0\
 \#N Geom=AllCheck Guess=TCheck SCRF=Check Test GenChk RB3LYP/Aug-CC-pV
 DZ Freq\\MD frame sim009_type3_coord-5_4-1-0_10C_b1_id81769_step4300\\
 1,1\O,-0.8097629848,1.2508983396,-1.7478075939\H,-0.8838450691,1.37026
 20736,-2.702486499\H,-0.7899408553,2.1401595001,-1.3640075876\O,2.2076
 910482,-0.5678158632,1.1324065533\H,-1.1176310863,2.0026190344,1.32901
 05732\O,-0.2842739747,2.20913698,0.8820114484\H,0.0958629152,2.9575233
 07,1.3586368533\H,2.5816159545,-1.3936419748,0.7982909145\H,2.77699834
 41,-0.2925240911,1.8608737325\O,0.9954074002,-2.020730084,-1.121093826
 7\H,0.5456991333,-2.869778629,-1.016786171\H,1.4424589125,-2.084713833
 5,-1.9755414832\H,-2.6607704308,-0.6335172435,0.9903535999\O,-1.998402
 0587,-0.1093647175,0.5233521007\H,-2.4048257121,0.1543666079,-0.314930
 5926\Na,0.3181984638,0.0334905942,-0.0208620217\\Version=ES64L-G16RevB
 .01\State=1-A\HF=-544.4645766\RMSD=1.712e-09\RMSF=1.360e-06\ZeroPoint=
 0.1205886\Thermal=0.1376223\Dipole=-0.0373037,-0.2894605,-0.1871008\Di
 poleDeriv=-0.6384218,-0.0002256,0.0052175,0.0009578,-0.4905521,-0.0472
 456,0.0057631,-0.0162075,-0.6242921,0.3325201,-0.0056133,-0.0003616,-0
 .0052285,0.269586,0.0368101,-0.0021969,0.0326128,0.2674724,0.2961355,0
 .0146386,0.0266179,0.0109754,0.2328275,0.0502354,0.0233939,0.0358657,0
 .4249111,-0.5584305,-0.0434844,0.0064709,-0.046584,-0.5567767,-0.00823
 3,0.0056601,-0.0058003,-0.5978706,0.2913833,0.0563075,0.0502745,0.0492
 072,0.3701786,0.0137723,0.0395538,0.0054639,0.2641177,-0.5552353,-0.01
 11272,-0.090505,0.0049908,-0.6186987,0.0256476,-0.0716881,0.0340102,-0
 .5554839,0.3133741,-0.0054095,0.0210572,-0.0071205,0.2986669,-0.041484
 3,0.0175392,-0.0474727,0.2602802,0.282314,0.0582964,0.0244794,0.061116
 2,0.271897,0.0267975,0.0255672,0.0251462,0.3498481,0.2729901,0.0211018
 ,-0.0405748,0.0193251,0.3118598,-0.0034297,-0.042737,-0.001976,0.29763
 56,-0.60038,0.0548157,-0.0460016,0.0553689,-0.5265525,0.026288,-0.0439
 063,0.0238483,-0.5212404,0.3194389,-0.0244723,0.0026103,-0.0247881,0.2
 596533,-0.0325731,0.0055118,-0.0286178,0.2846975,0.3194555,-0.0101494,
 0.0181177,-0.0104134,0.2793073,-0.0354771,0.0136754,-0.0370647,0.26427
 91,0.2510752,-0.0373526,-0.0136407,-0.0364405,0.3129568,0.0063756,-0.0
 178294,0.0044305,0.309802,-0.5271602,0.0214975,0.0655952,0.0097891,-0.
 64277,-0.0174288,0.0852218,-0.0061049,-0.5629396,0.2822885,0.0228208,-
 0.0703091,0.02869,0.3261884,-0.0307497,-0.0820837,-0.0407968,0.3263337
 ,0.9186527,-0.1116442,0.040952,-0.1098457,0.9022284,0.0306946,0.038555
 1,0.0226631,0.8124492\Polar=46.2909253,0.7437616,47.4598936,0.6630012,
 1.227979,48.320945\Quadrupole=-0.1437762,2.2578623,-2.1140861,-4.30313
 51,1.5034934,3.488189\PG=C01 [X(H10Na1O5)]\NImag=0\\0.01676186,-0.0011
 4601,0.49965383,0.04953361,0.09271636,0.64093805,-0.00755404,0.0045367
 9,-0.03939945,0.00732557,0.00879100,-0.05684715,0.09034939,-0.00475081
 ,0.05175752,-0.03949560,0.03574268,-0.50674223,0.04055461,-0.04616880,
 0.52459461,-0.00630493,-0.00535282,-0.00648744,-0.00046105,-0.00326976
 ,-0.00132737,0.00846540,-0.00827813,-0.43672942,-0.18481247,0.00063942
 ,0.00491565,0.01062233,0.00742485,0.43702673,-0.00696919,-0.13244071,-
 0.11285013,-0.00072662,-0.04388059,-0.01709098,0.00673933,0.17439698,0
 .12622645,0.00003129,0.00022717,-0.00046428,-0.00008140,0.00000465,0.0
 0011272,-0.00001952,-0.00009550,0.00014140,0.32596727,0.00034219,0.000
 38617,0.00041922,-0.00000862,-0.00010851,-0.00007402,-0.00030794,-0.00
 003342,-0.00039881,-0.11032442,0.45219117,-0.00064185,0.00038842,0.000
 15049,0.00016980,-0.00005827,0.00005186,0.00009956,-0.00013994,-0.0003
 4790,0.19384876,0.26111977,0.39039893,-0.00083751,-0.00049900,-0.00040
 652,0.00004365,-0.00007153,-0.00004612,0.00095908,0.00050323,0.0007531
 5,0.00019150,-0.00037284,-0.00022365,0.39123340,-0.00046688,-0.0006573
 0,-0.00019434,-0.00005931,-0.00012632,0.00003650,0.00003687,0.00049869
 ,0.00096056,-0.00031907,-0.00037012,0.00009045,0.10444398,0.05579282,-
 0.00105388,-0.00000466,0.00055548,-0.00020212,-0.00009208,-0.00012099,
 0.00202164,0.00044140,-0.00104734,0.00004354,-0.00004034,-0.00022341,-
 0.19498732,-0.03173007,0.12787761,0.00199489,0.00006020,-0.00261603,0.
 00015748,-0.00024643,-0.00010131,-0.00304201,-0.00073632,0.00185781,-0
 .00011588,0.00163543,0.00046235,-0.37514760,-0.07542971,0.21518373,0.4
 8904876,-0.00014065,0.00106173,-0.00386324,-0.00016271,-0.00012660,-0.
 00054484,-0.00062504,-0.00319221,-0.00049061,0.00098772,-0.00049618,-0
 .00033313,-0.10718939,-0.04968704,0.03921268,0.24707820,0.37758066,-0.
 00135995,-0.00149913,-0.00771686,-0.00039067,-0.00109944,0.00020915,0.
 00046926,-0.00034487,0.00206792,-0.00019219,0.00040035,0.00091594,0.18
 097795,0.01399498,-0.13419875,-0.11936946,0.17992654,0.29122426,-0.000
 07571,0.00023247,0.00065423,0.00019247,-0.00003574,-0.00000208,-0.0000
 2363,-0.00019403,-0.00062959,-0.00024747,-0.00047355,-0.00017310,-0.01
 398047,-0.03207569,-0.02270903,-0.10788520,-0.13589035,-0.06006237,0.1
 2120246,-0.00000451,0.00025598,0.00083418,-0.00007477,0.00020644,0.000
 12871,0.00021682,0.00016703,-0.00096638,-0.00019939,0.00049634,0.00030
 117,0.00133316,-0.00762105,-0.00874154,-0.16883055,-0.31336920,-0.1858
 9418,0.16851010,0.32106151,0.00000629,0.00019673,-0.00133485,-0.000095
 72,-0.00022896,-0.00026778,-0.00034422,-0.00132794,0.00068307,0.000035
 69,-0.00000279,-0.00022973,0.01230242,0.01773326,0.00851677,-0.0947410
 5,-0.21272936,-0.14901743,0.08278676,0.19526542,0.14086623,-0.00001665
 ,-0.00020522,-0.00005287,-0.00000386,0.00006025,-0.00001958,0.00005904
 ,0.00003340,0.00009358,-0.10782448,0.18814807,0.05890577,0.00009703,0.
 00010105,0.00004148,-0.00026982,0.00009847,-0.00015113,0.00002616,-0.0
 0003785,0.00000074,0.10012454,-0.00016915,-0.00006055,-0.00011460,0.00
 003354,0.00004733,0.00002945,0.00008827,-0.00000918,0.00005543,0.15457
 759,-0.37498885,-0.16271431,0.00008589,0.00001961,0.00004199,-0.000169
 13,0.00009014,-0.00008081,0.00006316,-0.00004809,0.00001090,-0.1655533
 4,0.38731538,0.00015237,-0.00025386,-0.00026841,-0.00009631,0.00010760
 ,0.00000669,0.00003904,0.00003704,0.00020175,0.03178952,-0.13285142,-0
 .08220654,0.00007659,0.00003778,0.00006477,-0.00036013,0.00019726,-0.0
 0019072,0.00007751,-0.00011544,0.00002944,-0.04811329,0.16235556,0.092
 29404,-0.00004445,0.00002001,0.00011473,0.00001416,0.00001549,-0.00002
 319,-0.00000681,-0.00001003,-0.00013955,-0.20237737,-0.08118453,-0.242
 72216,-0.00016283,0.00005423,-0.00010821,0.00036240,-0.00032468,0.0004
 6536,-0.00006885,0.00027716,-0.00011904,0.00844051,0.00979597,0.015468
 88,0.19346479,0.00001049,-0.00018176,-0.00004823,0.00000294,0.00001447
 ,0.00000761,0.00006593,0.00006469,0.00014663,-0.04643292,-0.07224535,-
 0.09719186,0.00012159,0.00017449,-0.00000493,-0.00063837,-0.00015418,-
 0.00030991,0.00041821,-0.00024478,0.00009918,-0.02558441,-0.01042390,-
 0.03109105,0.07204612,0.08193345,0.00015546,-0.00004369,0.00000389,-0.
 00004354,0.00000079,-0.00001173,-0.00006615,0.00002806,0.00003914,-0.2
 1471923,-0.12809504,-0.29738689,0.00004555,-0.00005281,0.00009791,0.00
 016117,-0.00001628,-0.00027735,-0.00005707,-0.00001441,0.00015339,-0.0
 1309169,0.00035490,-0.01143377,0.22818830,0.12841763,0.30880467,0.0005
 4859,0.00084640,0.00016852,-0.00017642,-0.00028684,0.00008564,-0.00020
 648,-0.00000304,-0.00025191,-0.00024101,-0.00092512,-0.00273808,-0.000
 20002,-0.00030500,-0.00015418,0.00052519,0.00022864,0.00022669,-0.0001
 7035,0.00002982,-0.00003882,-0.00008492,0.00023539,0.00271638,0.000575
 46,0.00001752,-0.00003084,0.23795377,0.00096709,-0.00106527,-0.0002294
 4,-0.00033259,0.00019627,-0.00023228,0.00004610,0.00009975,0.00033841,
 -0.00144721,-0.00021320,-0.00305826,-0.00007701,-0.00002108,0.00008767
 ,0.00007253,-0.00023082,-0.00030444,0.00005409,0.00008101,0.00005469,-
 0.00014332,-0.00207288,0.00056903,0.00004275,0.00010666,-0.00036775,0.
 19690677,0.45886109,-0.00037875,0.00066698,0.00087554,0.00028835,-0.00
 053365,-0.00007635,-0.00010514,-0.00000743,-0.00037618,-0.00308959,-0.
 00253562,-0.00283528,-0.00002742,0.00018033,-0.00006116,0.00015397,-0.
 00035753,0.00029773,-0.00003041,0.00010107,-0.00002827,0.00234377,0.00
 089643,-0.00012615,0.00000372,-0.00040006,0.00030349,-0.24337373,0.011
 00940,0.45195766,-0.00041684,0.00000328,0.00002089,0.00013773,0.000037
 66,0.00000398,0.00003848,0.00001603,-0.00000908,-0.00007249,0.00032442
 ,0.00009508,0.00010469,0.00014753,0.00005527,-0.00021216,-0.00003825,-
 0.00001735,0.00003782,-0.00001350,0.00002181,-0.00032867,-0.00081625,-
 0.00005351,0.00001466,-0.00004181,-0.00016933,-0.11803849,-0.18925508,
 0.04773579,0.12700266,0.00005425,0.00022780,0.00005204,0.00002069,-0.0
 0010285,0.00002292,-0.00000985,-0.00002755,-0.00005705,0.00013319,0.00
 007315,0.00014461,-0.00004221,-0.00009808,-0.00004937,0.00004829,0.000
 14851,0.00006099,-0.00000160,-0.00003233,-0.00001681,-0.00021002,-0.00
 010278,-0.00029390,-0.00001379,0.00012101,-0.00004895,-0.21343348,-0.4
 0370575,0.05497674,0.21112607,0.40450511,0.00007174,-0.00017943,-0.000
 15753,0.00000255,0.00012801,0.00002939,-0.00000720,0.00001142,0.000103
 31,0.00006509,0.00017051,-0.00101475,-0.00002271,-0.00008970,0.0000229
 6,0.00001573,0.00006523,-0.00012774,0.00001234,-0.00002471,0.00001121,
 -0.00041452,-0.00080192,0.00080779,-0.00003283,-0.00002990,-0.00022609
 ,0.02691946,0.01013304,-0.04251448,-0.04787728,-0.04774797,0.04807782,
 0.00003826,-0.00053470,-0.00029566,-0.00005595,0.00033064,-0.00000964,
 0.00011429,0.00002683,0.00014751,-0.00070850,-0.00036977,-0.00000326,0
 .00003993,0.00004213,0.00003546,-0.00012845,-0.00007105,-0.00010941,0.
 00005695,0.00000187,-0.00000097,0.00088025,0.00026851,-0.00068509,-0.0
 0008786,-0.00016969,-0.00011417,-0.11654439,-0.00829848,0.19426414,-0.
 00942549,0.00343197,0.02200687,0.12564980,-0.00060570,0.00037468,0.000
 46219,0.00036836,-0.00025548,0.00003584,-0.00000769,-0.00007736,-0.000
 18328,-0.00038878,-0.00052260,0.00001633,0.00002646,0.00007915,-0.0000
 3072,-0.00004771,-0.00008705,0.00015761,0.00001176,-0.00001558,-0.0000
 3360,0.00028554,0.00036949,-0.00013491,-0.00009553,-0.00000033,-0.0000
 0378,0.01646187,-0.04511356,-0.06117499,-0.02185262,0.00026834,0.03872
 347,0.00473480,0.04424493,0.00001922,-0.00001069,-0.00028875,-0.000121
 36,0.00016943,0.00012134,0.00002077,0.00001852,0.00006611,-0.00018983,
 0.00011762,0.00027468,0.00000155,-0.00004114,0.00001266,-0.00006943,0.
 00012013,-0.00005397,0.00001560,-0.00003091,0.00000712,0.00024392,-0.0
 0017831,-0.00096331,-0.00018412,-0.00011000,-0.00000951,0.21558976,-0.
 01685400,-0.40246702,0.00049437,-0.00716343,-0.00608306,-0.21624524,0.
 02418106,0.40963143,0.00064215,0.00027179,-0.00013390,0.00004967,-0.00
 011586,0.00003776,-0.00009394,-0.00007456,-0.00005120,0.00021300,0.000
 13401,-0.00007598,-0.00027064,-0.00015895,0.00010076,-0.00002177,-0.00
 009120,-0.00018164,0.00013233,-0.00013143,0.00004366,-0.00010142,-0.00
 001898,0.00001418,-0.00006749,-0.00003265,-0.00000611,0.00024760,0.000
 05151,-0.00021030,-0.00018921,0.00013726,0.00018389,-0.00001599,-0.000
 01645,0.00004974,0.25901300,0.00025291,0.00028349,0.00005112,-0.000205
 73,0.00006597,0.00001854,-0.00000447,0.00010525,-0.00002127,-0.0000099
 1,-0.00020532,0.00003123,-0.00069180,-0.00013271,0.00069667,-0.0000023
 4,-0.00039788,-0.00034915,-0.00021734,-0.00010491,-0.00003504,0.000091
 13,0.00006510,-0.00000364,-0.00000091,0.00004657,0.00001279,-0.0001032
 9,-0.00023816,0.00013601,0.00026586,-0.00000311,-0.00019832,0.00000885
 ,0.00001948,-0.00004171,0.18890336,0.16185261,0.00019081,0.00034307,-0
 .00056973,0.00024983,0.00019768,0.00001428,0.00008764,0.00011051,-0.00
 018367,-0.00001685,-0.00000235,-0.00022997,0.00007207,0.00058445,0.001
 01049,-0.00072160,-0.00094836,-0.00056943,-0.00013719,-0.00020082,0.00
 008783,0.00002732,0.00001294,0.00008339,-0.00006461,0.00000170,0.00007
 037,-0.00035890,0.00007829,0.00001811,0.00023787,-0.00014517,0.0000358
 0,0.00006295,0.00000686,-0.00002664,-0.15679751,-0.14923627,0.16242562
 ,-0.00056202,-0.00196208,0.00395595,-0.00062123,-0.00060765,0.00003578
 ,-0.00026516,0.00021839,0.00002131,-0.00065337,-0.00004268,-0.00030029
 ,-0.00214254,0.00056491,0.00054427,-0.00137097,-0.00412821,-0.00136007
 ,-0.00016269,-0.00037654,0.00029976,0.00015919,-0.00007406,0.00002631,
 0.00004517,0.00011339,0.00011322,-0.00070959,0.00043720,0.00054101,0.0
 0010574,-0.00041035,-0.00009911,0.00001138,0.00013688,-0.00015973,-0.2
 7002402,-0.17686444,0.12536968,0.41625261,-0.00188066,-0.00014150,0.00
 434048,-0.00055020,-0.00071318,-0.00024962,0.00074391,0.00051032,-0.00
 099060,0.00031385,0.00069403,0.00008126,0.00141007,0.00106393,0.002393
 55,-0.00380380,-0.00420754,-0.00252217,-0.00035102,0.00002058,0.000711
 98,-0.00035305,-0.00017164,-0.00009701,0.00002014,-0.00019463,-0.00004
 185,0.00123630,0.00033296,-0.00073838,-0.00089354,0.00049803,0.0004405
 7,-0.00004532,-0.00024820,0.00020471,-0.19999379,-0.15523580,0.1270890
 2,0.15438803,0.21188636,0.00223887,0.00277051,-0.00325743,0.00046296,0
 .00056005,0.00035416,-0.00016359,-0.00063199,-0.00100649,-0.00027949,0
 .00004636,0.00070743,0.00072882,0.00153147,-0.00212229,-0.00007263,-0.
 00072917,0.00171482,0.00001678,0.00027191,0.00049033,-0.00005972,-0.00
 003528,-0.00029007,0.00020302,-0.00003226,-0.00010389,0.00097863,-0.00
 054510,0.00030392,-0.00031949,0.00035595,-0.00032252,-0.00021291,0.000
 07588,0.00004504,0.17087904,0.14687273,-0.14527020,0.02362387,-0.26047
 048,0.53084612,0.00014831,0.00090386,-0.00194544,0.00086189,0.00073734
 ,0.00008026,-0.00010075,-0.00052202,-0.00032855,-0.00002288,-0.0000352
 8,0.00026072,0.00007286,0.00020426,-0.00051540,0.00016968,0.00001517,0
 .00063987,-0.00002371,-0.00007186,0.00014055,-0.00003343,-0.00001248,-
 0.00012021,0.00001842,-0.00000152,-0.00002601,0.00039265,-0.00039890,0
 .00017959,-0.00003426,0.00014853,-0.00012062,-0.00009608,0.00008279,0.
 00003385,0.01070777,-0.01160540,0.03108085,-0.12999488,0.05176314,-0.1
 9863770,0.12125294,0.00195976,-0.00171103,-0.00168737,0.00048638,0.000
 46511,0.00044757,-0.00173372,-0.00109140,0.00059742,-0.00012949,-0.000
 14934,-0.00003457,-0.00064928,0.00082021,-0.00161028,0.00059910,-0.000
 53922,0.00098765,-0.00007877,-0.00015278,0.00007655,0.00009635,0.00005
 451,0.00005339,0.00001231,0.00005907,-0.00000930,-0.00067721,-0.000052
 79,0.00011067,0.00038075,-0.00020307,0.00001864,0.00008126,0.00012902,
 -0.00009158,0.01223053,-0.00662355,0.02202981,0.02853148,-0.05009583,0
 .10951247,-0.04200980,0.05717507,-0.00187146,-0.00103776,-0.00179794,0
 .00046055,0.00019545,-0.00064170,-0.00019050,0.00035433,0.00141951,0.0
 0022224,0.00003400,-0.00019628,-0.00107502,-0.00086931,-0.00072035,0.0
 0071158,0.00064619,-0.00031540,0.00005906,-0.00010439,-0.00003174,-0.0
 0002463,-0.00000291,0.00012055,-0.00006457,-0.00001391,0.00001492,-0.0
 0012904,0.00026577,-0.00045806,-0.00003310,-0.00003735,0.00022290,0.00
 014792,-0.00015763,0.00006887,-0.01443119,0.00242740,-0.01700054,-0.15
 544575,0.12888843,-0.37820665,0.17212221,-0.13019239,0.39561399,-0.004
 35321,0.00259785,-0.00264633,0.00017133,-0.00059241,0.00011414,0.00088
 800,0.00105149,-0.00064841,-0.01403869,0.00346062,-0.00696368,-0.00000
 055,0.00321965,0.00170398,-0.00406456,0.00025334,0.00041512,0.00098989
 ,-0.00062854,-0.00029788,-0.00112345,0.00166508,-0.00093225,-0.0001198
 9,0.00010520,-0.00033957,-0.00387159,0.00137455,0.00170500,0.00127582,
 -0.00097896,-0.00070341,0.00027184,0.00090601,0.00050094,-0.00022104,0
 .00018352,0.00071763,-0.01006763,-0.00200407,0.00061356,-0.00331854,0.
 00090035,-0.00045832,0.03758227,0.00031401,-0.00484971,0.00172471,0.00
 005663,0.00061132,0.00017740,0.00268855,-0.00222758,0.00293387,0.00310
 252,-0.00450796,0.00135710,0.00166867,0.00026480,-0.00056996,0.0004106
 0,-0.00639314,-0.00312401,0.00002829,-0.00070019,0.00022579,0.00317294
 ,-0.00008370,0.00148356,-0.00065471,0.00092450,-0.00012031,-0.00022872
 ,-0.00696422,-0.00232995,0.00060946,-0.00156643,-0.00061895,0.00056215
 ,0.00083508,-0.00028970,-0.00109460,0.00050296,0.00007863,0.00007573,-
 0.00399788,0.00044696,0.00080217,0.00191601,-0.00039593,-0.01151368,0.
 02623616,-0.00059769,0.00264520,-0.00753958,-0.00111288,0.00035339,-0.
 00042971,-0.00078565,0.00124405,0.00209545,-0.00730749,0.00169258,-0.0
 0782859,0.00183068,-0.00217242,0.00033565,-0.00049469,-0.00015550,-0.0
 0396215,0.00017855,-0.00080969,0.00006443,0.00027086,0.00017053,0.0018
 7056,-0.00098575,0.00055935,-0.00003853,0.00039040,-0.00094504,-0.0048
 1350,-0.00018590,-0.00005324,0.00113497,0.00101150,-0.00194033,-0.0003
 3501,0.00057878,-0.00036109,0.00010428,0.00283379,0.00096010,-0.003882
 27,-0.00284397,-0.00020869,0.00190794,0.00721947,-0.00097921,0.0213160
 7\\-0.00000043,-0.00000115,0.00000024,-0.00000085,-0.00000067,-0.00000
 124,-0.00000073,0.00000005,-0.00000030,-0.00000223,0.00000077,0.000000
 22,-0.00000062,-0.00000015,-0.00000007,-0.00000126,-0.00000045,-0.0000
 0097,-0.00000003,0.00000091,-0.00000041,-0.00000038,-0.00000095,0.0000
 0080,0.00000021,0.00000056,0.00000339,0.00000230,0.00000376,0.00000174
 ,-0.00000101,-0.00000206,-0.00000101,0.00000402,0.00000127,-0.00000282
 ,0.00000005,-0.00000109,0.00000094,0.00000095,-0.00000125,-0.00000033,
 -0.00000032,-0.00000051,-0.00000024,0.00000034,0.00000096,0.00000006\\
 \@


 AN AIRPLANE IS A COLLECTION OF SPARE PARTS
 FLYING IN CLOSE FORMATION.
 Job cpu time:       0 days  1 hours  1 minutes 16.2 seconds.
 Elapsed time:       0 days  0 hours  1 minutes 32.9 seconds.
 File lengths (MBytes):  RWF=     88 Int=      0 D2E=      0 Chk=      6 Scr=      1
 Normal termination of Gaussian 16 at Mon Jul 18 20:55:27 2022.
