 Entering Gaussian System, Link 0=g16
 Initial command:
 /share/sw/gaussian/g16_B.01_avx2-enabled/g16/l1.exe "/scratch/hnr2/2615647/Gau-12403.inp" -scrdir="/scratch/hnr2/2615647/"
 Entering Link 1 = /share/sw/gaussian/g16_B.01_avx2-enabled/g16/l1.exe PID=     12404.
  
 Copyright (c) 1988-2017, Gaussian, Inc.  All Rights Reserved.
  
 This is part of the Gaussian(R) 16 program.  It is based on
 the Gaussian(R) 09 system (copyright 2009, Gaussian, Inc.),
 the Gaussian(R) 03 system (copyright 2003, Gaussian, Inc.),
 the Gaussian(R) 98 system (copyright 1998, Gaussian, Inc.),
 the Gaussian(R) 94 system (copyright 1995, Gaussian, Inc.),
 the Gaussian 92(TM) system (copyright 1992, Gaussian, Inc.),
 the Gaussian 90(TM) system (copyright 1990, Gaussian, Inc.),
 the Gaussian 88(TM) system (copyright 1988, Gaussian, Inc.),
 the Gaussian 86(TM) system (copyright 1986, Carnegie Mellon
 University), and the Gaussian 82(TM) system (copyright 1983,
 Carnegie Mellon University). Gaussian is a federally registered
 trademark of Gaussian, Inc.
  
 This software contains proprietary and confidential information,
 including trade secrets, belonging to Gaussian, Inc.
  
 This software is provided under written license and may be
 used, copied, transmitted, or stored only in accord with that
 written license.
  
 The following legend is applicable only to US Government
 contracts under FAR:
  
                    RESTRICTED RIGHTS LEGEND
  
 Use, reproduction and disclosure by the US Government is
 subject to restrictions as set forth in subparagraphs (a)
 and (c) of the Commercial Computer Software - Restricted
 Rights clause in FAR 52.227-19.
  
 Gaussian, Inc.
 340 Quinnipiac St., Bldg. 40, Wallingford CT 06492
  
  
 ---------------------------------------------------------------
 Warning -- This program may not be used in any manner that
 competes with the business of Gaussian, Inc. or will provide
 assistance to any competitor of Gaussian, Inc.  The licensee
 of this program is prohibited from giving any competitor of
 Gaussian, Inc. access to this program.  By using this program,
 the user acknowledges that Gaussian, Inc. is engaged in the
 business of creating and licensing software in the field of
 computational chemistry and represents and warrants to the
 licensee that it is not a competitor of Gaussian, Inc. and that
 it will not use this program in any manner prohibited above.
 ---------------------------------------------------------------
  

 Cite this work as:
 Gaussian 16, Revision B.01,
 M. J. Frisch, G. W. Trucks, H. B. Schlegel, G. E. Scuseria, 
 M. A. Robb, J. R. Cheeseman, G. Scalmani, V. Barone, 
 G. A. Petersson, H. Nakatsuji, X. Li, M. Caricato, A. V. Marenich, 
 J. Bloino, B. G. Janesko, R. Gomperts, B. Mennucci, H. P. Hratchian, 
 J. V. Ortiz, A. F. Izmaylov, J. L. Sonnenberg, D. Williams-Young, 
 F. Ding, F. Lipparini, F. Egidi, J. Goings, B. Peng, A. Petrone, 
 T. Henderson, D. Ranasinghe, V. G. Zakrzewski, J. Gao, N. Rega, 
 G. Zheng, W. Liang, M. Hada, M. Ehara, K. Toyota, R. Fukuda, 
 J. Hasegawa, M. Ishida, T. Nakajima, Y. Honda, O. Kitao, H. Nakai, 
 T. Vreven, K. Throssell, J. A. Montgomery, Jr., J. E. Peralta, 
 F. Ogliaro, M. J. Bearpark, J. J. Heyd, E. N. Brothers, K. N. Kudin, 
 V. N. Staroverov, T. A. Keith, R. Kobayashi, J. Normand, 
 K. Raghavachari, A. P. Rendell, J. C. Burant, S. S. Iyengar, 
 J. Tomasi, M. Cossi, J. M. Millam, M. Klene, C. Adamo, R. Cammi, 
 J. W. Ochterski, R. L. Martin, K. Morokuma, O. Farkas, 
 J. B. Foresman, and D. J. Fox, Gaussian, Inc., Wallingford CT, 2016.
 
 ******************************************
 Gaussian 16:  ES64L-G16RevB.01 20-Dec-2017
                18-Jul-2022 
 ******************************************
 %nprocshared=40
 Will use up to   40 processors via shared memory.
 %mem=60GB
 %chk=sim010_type3_coord-5_1-4-0_10C_b1_id81750_step4840.chk
 ----------------------------------------------------------------------
 # opt=(calcall,maxcycles=500,maxstep=10,cartesian) freq iop(1/152=500,
 1/8=10) scf=(maxcycle=500) int(Acc2E=11,grid=ultrafine) rb3lyp/aug-cc-
 pvdz empiricaldispersion=gd3
 ----------------------------------------------------------------------
 1/6=500,8=10,10=4,18=10,26=4,38=1,152=500/1,3;
 2/12=2,17=6,18=5,29=2,40=1/2;
 3/5=16,7=10,11=2,25=1,27=11,30=1,71=2,74=-5,75=-5,116=1,124=31,140=1/1,2,3;
 4//1;
 5/5=2,7=500,38=5,87=11/2;
 8/6=4,10=90,11=11,87=11/1;
 11/6=1,8=1,9=11,15=111,16=1,87=11/1,2,10;
 10/6=1,87=11/2;
 6/7=2,8=2,9=2,10=2,18=1,28=1,87=11/1;
 7/7=1,10=1,25=1,87=11/1,2,3,16;
 1/6=500,8=10,10=4,18=10,26=4,152=500/3(3);
 2/29=1/2;
 7/7=1,8=1,9=1,25=1,44=-1,87=11/16;
 99/12=1/99;
 2/29=1/2;
 3/5=16,7=10,11=2,25=1,27=11,30=1,71=2,74=-5,75=-5,116=1,124=31,140=1/1,2,3;
 4/5=5,16=3,69=1/1;
 5/5=2,7=500,38=5,87=11/2;
 8/6=4,10=90,11=11,87=11/1;
 11/6=1,8=1,9=11,15=111,16=1,87=11/1,2,10;
 10/6=1,87=11/2;
 7/7=1,10=1,25=1,87=11/1,2,3,16;
 1/6=500,8=10,10=4,18=10,26=4,152=500/3(-8);
 2/29=1/2;
 6/7=2,8=2,9=2,10=2,18=1,19=2,28=1,87=11/1;
 7/7=1,8=1,9=1,25=1,44=-1,87=11/16;
 99/12=1/99;
 -----------------------------------------------------------
 MD frame sim010_type3_coord-5_1-4-0_10C_b1_id81750_step4840
 -----------------------------------------------------------
 Symbolic Z-matrix:
 Charge =  1 Multiplicity = 1
 O                    -1.74856   0.97799  -1.09824 
 H                    -2.08654   0.90529  -1.99024 
 H                    -2.20556   1.7333   -0.72825 
 O                     0.09599   2.23257   0.9276 
 H                     0.67099   2.92194   1.2581 
 H                    -0.643     2.70195   0.5405 
 O                    -1.545    -0.61892   1.703 
 H                    -1.664    -1.38241   2.2677 
 H                    -1.155     0.0433    2.2738 
 O                     0.78269  -2.4699    0.19222 
 H                    -0.02222  -2.969     0.33022 
 H                     1.22199  -2.9176   -0.53079 
 O                     1.75694   0.79799  -1.42225 
 H                     1.80623   1.68269  -1.06025 
 H                     2.62713   0.42889  -1.27224 
 Na                    0.        0.        0. 
 

 GradGradGradGradGradGradGradGradGradGradGradGradGradGradGradGradGradGrad
 Berny optimization.
 Initialization pass.
 No Z-matrix variables, so optimization will use Cartesian coordinates.
 Trust Radius=1.00D-01 FncErr=1.00D-07 GrdErr=1.00D-06 EigMax=2.50D+02 EigMin=1.00D-04
 Number of steps in this run=    500 maximum allowed number of steps=    500.
 GradGradGradGradGradGradGradGradGradGradGradGradGradGradGradGradGradGrad

 ---------------------------------------------------------------------------------------------------
                            Z-MATRIX (ANGSTROMS AND DEGREES)
   CD    Cent   Atom    N1       Length/X        N2       Alpha/Y        N3        Beta/Z          J
 ---------------------------------------------------------------------------------------------------
      1      1  O        0  -1.748560          0.977990         -1.098240
      2      2  H        0  -2.086540          0.905290         -1.990240
      3      3  H        0  -2.205560          1.733300         -0.728250
      4      4  O        0   0.095990          2.232570          0.927600
      5      5  H        0   0.670990          2.921940          1.258100
      6      6  H        0  -0.643000          2.701950          0.540500
      7      7  O        0  -1.545000         -0.618920          1.703000
      8      8  H        0  -1.664000         -1.382410          2.267700
      9      9  H        0  -1.155000          0.043300          2.273800
     10     10  O        0   0.782690         -2.469900          0.192220
     11     11  H        0  -0.022220         -2.969000          0.330220
     12     12  H        0   1.221990         -2.917600         -0.530790
     13     13  O        0   1.756940          0.797990         -1.422250
     14     14  H        0   1.806230          1.682690         -1.060250
     15     15  H        0   2.627130          0.428890         -1.272240
     16     16  Na       0   0.000000          0.000000          0.000000
 ---------------------------------------------------------------------------------------------------
                         Z-Matrix orientation:                         
 ---------------------------------------------------------------------
 Center     Atomic      Atomic             Coordinates (Angstroms)
 Number     Number       Type             X           Y           Z
 ---------------------------------------------------------------------
      1          8           0       -1.748560    0.977990   -1.098240
      2          1           0       -2.086540    0.905290   -1.990240
      3          1           0       -2.205560    1.733300   -0.728250
      4          8           0        0.095990    2.232570    0.927600
      5          1           0        0.670990    2.921940    1.258100
      6          1           0       -0.643000    2.701950    0.540500
      7          8           0       -1.545000   -0.618920    1.703000
      8          1           0       -1.664000   -1.382410    2.267700
      9          1           0       -1.155000    0.043300    2.273800
     10          8           0        0.782690   -2.469900    0.192220
     11          1           0       -0.022220   -2.969000    0.330220
     12          1           0        1.221990   -2.917600   -0.530790
     13          8           0        1.756940    0.797990   -1.422250
     14          1           0        1.806230    1.682690   -1.060250
     15          1           0        2.627130    0.428890   -1.272240
     16         11           0        0.000000    0.000000    0.000000
 ---------------------------------------------------------------------
                    Distance matrix (angstroms):
                    1          2          3          4          5
     1  O    0.000000
     2  H    0.956650   0.000000
     3  H    0.957202   1.514062   0.000000
     4  O    3.013364   3.878002   2.878931   0.000000
     5  H    3.896858   4.714081   3.692288   0.956601   0.000000
     6  H    2.622932   3.422929   2.233742   0.957220   1.513247
     7  O    3.230867   4.031935   3.446775   3.380102   4.200742
     8  H    4.111957   4.852027   4.356220   4.238103   4.999890
     9  H    3.549171   4.448913   3.601677   2.858345   3.557029
    10  O    4.467713   4.938372   5.238682   4.808905   5.497319
    11  H    4.538665   4.965488   5.291404   5.237095   6.003722
    12  H    4.931713   5.262210   5.780827   5.469829   6.132206
    13  O    3.525041   3.886704   4.130115   3.215365   3.588137
    14  H    3.624166   4.077118   4.025822   2.679335   2.863435
    15  H    4.413440   4.791781   5.035107   3.807785   4.055170
    16  Na   2.284745   3.022293   2.898132   2.419509   3.251273
                    6          7          8          9         10
     6  H    0.000000
     7  O    3.632243   0.000000
     8  H    4.550567   0.957060   0.000000
     9  H    3.214793   0.957313   1.513858   0.000000
    10  O    5.376051   3.335674   3.387705   3.795233   0.000000
    11  H    5.708700   3.118695   2.994418   3.759607   0.957092
    12  H    6.017075   4.234381   4.303172   4.720459   0.957164
    13  O    3.638291   4.762103   5.483859   4.765473   3.772901
    14  H    3.098390   4.915659   5.701981   4.751039   4.456492
    15  H    4.375680   5.230356   5.850280   5.198806   3.734914
    16  Na   2.829509   2.381238   3.134073   2.550699   2.598068
                   11         12         13         14         15
    11  H    0.000000
    12  H    1.513948   0.000000
    13  O    4.519599   3.858300   0.000000
    14  H    5.187953   4.667369   0.957166   0.000000
    15  H    4.597020   3.704479   0.957062   1.513549   0.000000
    16  Na   2.987390   3.207396   2.397169   2.686641   2.950314
                   16
    16  Na   0.000000
 Stoichiometry    H10NaO5(1+)
 Framework group  C1[X(H10NaO5)]
 Deg. of freedom    42
 Full point group                 C1      NOp   1
 Largest Abelian subgroup         C1      NOp   1
 Largest concise Abelian subgroup C1      NOp   1
                         Standard orientation:                         
 ---------------------------------------------------------------------
 Center     Atomic      Atomic             Coordinates (Angstroms)
 Number     Number       Type             X           Y           Z
 ---------------------------------------------------------------------
      1          8           0        1.143609   -0.746895    1.674505
      2          1           0        1.270221   -0.527893    2.597103
      3          1           0        1.849805   -1.361009    1.473544
      4          8           0        1.832825   -0.392340   -1.237477
      5          1           0        2.396763   -0.125625   -1.962683
      6          1           0        2.426737   -0.807953   -0.612333
      7          8           0       -0.968605   -2.076608   -0.377060
      8          1           0       -1.813139   -2.460559   -0.612236
      9          1           0       -0.461685   -2.096159   -1.188908
     10          8           0       -2.684027    0.766857   -0.062797
     11          1           0       -3.132024    0.041230    0.371701
     12          1           0       -3.020645    1.551075    0.370623
     13          8           0        0.739557    2.349146    0.038293
     14          1           0        1.532014    2.154631   -0.462051
     15          1           0        0.278034    3.001798   -0.488025
     16         11           0       -0.166632    0.129925    0.020869
 ---------------------------------------------------------------------
 Rotational constants (GHZ):           1.7107041           1.4708200           1.0890016
 Standard basis: Aug-CC-pVDZ (5D, 7F)
 There are   244 symmetry adapted cartesian basis functions of A   symmetry.
 There are   232 symmetry adapted basis functions of A   symmetry.
   232 basis functions,   406 primitive gaussians,   244 cartesian basis functions
    30 alpha electrons       30 beta electrons
       nuclear repulsion energy       302.4860560598 Hartrees.
 NAtoms=   16 NActive=   16 NUniq=   16 SFac= 1.00D+00 NAtFMM=   60 NAOKFM=F Big=F
 Integral buffers will be    131072 words long.
 Raffenetti 2 integral format.
 Two-electron integral symmetry is turned on.
 Nuclear repulsion after empirical dispersion term =      302.4770983703 Hartrees.
 One-electron integrals computed using PRISM.
 NBasis=   232 RedAO= T EigKep=  2.90D-04  NBF=   232
 NBsUse=   232 1.00D-06 EigRej= -1.00D+00 NBFU=   232
 ExpMin= 6.16D-03 ExpMax= 3.17D+04 ExpMxC= 1.08D+03 IAcc=3 IRadAn=         5 AccDes= 0.00D+00
 Harris functional with IExCor=  402 and IRadAn=       5 diagonalized for initial guess.
 HarFok:  IExCor=  402 AccDes= 0.00D+00 IRadAn=         5 IDoV= 1 UseB2=F ITyADJ=14
 ICtDFT=  3500011 ScaDFX=  1.000000  1.000000  1.000000  1.000000
 FoFCou: FMM=F IPFlag=           0 FMFlag=      100000 FMFlg1=           0
         NFxFlg=           0 DoJE=T BraDBF=F KetDBF=T FulRan=T
         wScrn=  0.000000 ICntrl=       500 IOpCl=  0 I1Cent=   200000004 NGrid=           0
         NMat0=    1 NMatS0=      1 NMatT0=    0 NMatD0=    1 NMtDS0=    0 NMtDT0=    0
 Petite list used in FoFCou.
 Requested convergence on RMS density matrix=1.00D-08 within 500 cycles.
 Requested convergence on MAX density matrix=1.00D-06.
 Requested convergence on             energy=1.00D-06.
 No special actions if energy rises.
 SCF Done:  E(RB3LYP) =  -544.443415836     A.U. after   10 cycles
            NFock= 10  Conv=0.79D-08     -V/T= 2.0055
 DoSCS=F DFT=T ScalE2(SS,OS)=  1.000000  1.000000
 Range of M.O.s used for correlation:     1   232
 NBasis=   232 NAE=    30 NBE=    30 NFC=     0 NFV=     0
 NROrb=    232 NOA=    30 NOB=    30 NVA=   202 NVB=   202

 **** Warning!!: The largest alpha MO coefficient is  0.13858624D+02

 Symmetrizing basis deriv contribution to polar:
 IMax=3 JMax=2 DiffMx= 0.00D+00
 G2DrvN: will do    17 centers at a time, making    1 passes.
 Calling FoFCou, ICntrl=  3107 FMM=F I1Cent=   0 AccDes= 1.00D-11.
 End of G2Drv F.D. properties file   721 does not exist.
 End of G2Drv F.D. properties file   722 does not exist.
 End of G2Drv F.D. properties file   788 does not exist.
          IDoAtm=1111111111111111
          Differentiating once with respect to electric field.
                with respect to dipole field.
          Differentiating once with respect to nuclear coordinates.
 Keep R1 ints in memory in canonical form, NReq=408195318.
          There are    51 degrees of freedom in the 1st order CPHF.  IDoFFX=6 NUNeed=     3.
     48 vectors produced by pass  0 Test12= 1.19D-14 1.96D-09 XBig12= 2.24D+01 1.13D+00.
 AX will form    48 AO Fock derivatives at one time.
     48 vectors produced by pass  1 Test12= 1.19D-14 1.96D-09 XBig12= 2.39D+00 2.21D-01.
     48 vectors produced by pass  2 Test12= 1.19D-14 1.96D-09 XBig12= 3.22D-02 2.12D-02.
     48 vectors produced by pass  3 Test12= 1.19D-14 1.96D-09 XBig12= 8.88D-05 1.19D-03.
     48 vectors produced by pass  4 Test12= 1.19D-14 1.96D-09 XBig12= 1.27D-07 3.47D-05.
     22 vectors produced by pass  5 Test12= 1.19D-14 1.96D-09 XBig12= 9.22D-11 9.16D-07.
      3 vectors produced by pass  6 Test12= 1.19D-14 1.96D-09 XBig12= 5.81D-14 2.55D-08.
 InvSVY:  IOpt=1 It=  1 EMax= 2.66D-15
 Solved reduced A of dimension   265 with    51 vectors.
 Isotropic polarizability for W=    0.000000       46.59 Bohr**3.
 End of Minotr F.D. properties file   721 does not exist.
 End of Minotr F.D. properties file   722 does not exist.
 End of Minotr F.D. properties file   788 does not exist.

 **********************************************************************

            Population analysis using the SCF Density.

 **********************************************************************

 Orbital symmetries:
       Occupied  (A) (A) (A) (A) (A) (A) (A) (A) (A) (A) (A) (A)
                 (A) (A) (A) (A) (A) (A) (A) (A) (A) (A) (A) (A)
                 (A) (A) (A) (A) (A) (A)
       Virtual   (A) (A) (A) (A) (A) (A) (A) (A) (A) (A) (A) (A)
                 (A) (A) (A) (A) (A) (A) (A) (A) (A) (A) (A) (A)
                 (A) (A) (A) (A) (A) (A) (A) (A) (A) (A) (A) (A)
                 (A) (A) (A) (A) (A) (A) (A) (A) (A) (A) (A) (A)
                 (A) (A) (A) (A) (A) (A) (A) (A) (A) (A) (A) (A)
                 (A) (A) (A) (A) (A) (A) (A) (A) (A) (A) (A) (A)
                 (A) (A) (A) (A) (A) (A) (A) (A) (A) (A) (A) (A)
                 (A) (A) (A) (A) (A) (A) (A) (A) (A) (A) (A) (A)
                 (A) (A) (A) (A) (A) (A) (A) (A) (A) (A) (A) (A)
                 (A) (A) (A) (A) (A) (A) (A) (A) (A) (A) (A) (A)
                 (A) (A) (A) (A) (A) (A) (A) (A) (A) (A) (A) (A)
                 (A) (A) (A) (A) (A) (A) (A) (A) (A) (A) (A) (A)
                 (A) (A) (A) (A) (A) (A) (A) (A) (A) (A) (A) (A)
                 (A) (A) (A) (A) (A) (A) (A) (A) (A) (A) (A) (A)
                 (A) (A) (A) (A) (A) (A) (A) (A) (A) (A) (A) (A)
                 (A) (A) (A) (A) (A) (A) (A) (A) (A) (A) (A) (A)
                 (A) (A) (A) (A) (A) (A) (A) (A) (A) (A)
 The electronic state is 1-A.
 Alpha  occ. eigenvalues --  -38.59497 -19.33460 -19.32146 -19.31253 -19.31080
 Alpha  occ. eigenvalues --  -19.30623  -2.33073  -1.26452  -1.26362  -1.26288
 Alpha  occ. eigenvalues --   -1.20187  -1.18904  -1.17998  -1.17746  -1.17190
 Alpha  occ. eigenvalues --   -0.72189  -0.70113  -0.69630  -0.69238  -0.68640
 Alpha  occ. eigenvalues --   -0.59078  -0.57881  -0.55948  -0.55803  -0.55325
 Alpha  occ. eigenvalues --   -0.50514  -0.48732  -0.48241  -0.47935  -0.47295
 Alpha virt. eigenvalues --   -0.17825  -0.14595  -0.13617  -0.12928  -0.10672
 Alpha virt. eigenvalues --   -0.09089  -0.08555  -0.07342  -0.06878  -0.06641
 Alpha virt. eigenvalues --   -0.05700  -0.05499  -0.05196  -0.05149  -0.05038
 Alpha virt. eigenvalues --   -0.04379  -0.03179  -0.02382  -0.00649  -0.00311
 Alpha virt. eigenvalues --    0.00048   0.00390   0.00923   0.00990   0.01120
 Alpha virt. eigenvalues --    0.01637   0.01826   0.02187   0.03129   0.03311
 Alpha virt. eigenvalues --    0.03803   0.04411   0.05164   0.05693   0.05821
 Alpha virt. eigenvalues --    0.06400   0.06902   0.07390   0.07602   0.07998
 Alpha virt. eigenvalues --    0.09031   0.09569   0.10141   0.11581   0.12017
 Alpha virt. eigenvalues --    0.12932   0.14230   0.15214   0.15730   0.16008
 Alpha virt. eigenvalues --    0.17277   0.17497   0.18799   0.19660   0.20319
 Alpha virt. eigenvalues --    0.21674   0.22097   0.22762   0.24780   0.25466
 Alpha virt. eigenvalues --    0.26057   0.27311   0.28800   0.29182   0.29688
 Alpha virt. eigenvalues --    0.30439   0.30697   0.31540   0.32483   0.32801
 Alpha virt. eigenvalues --    0.33804   0.34576   0.35920   0.36074   0.36638
 Alpha virt. eigenvalues --    0.37670   0.37975   0.39407   0.39688   0.40916
 Alpha virt. eigenvalues --    0.41498   0.42899   0.43209   0.44029   0.44344
 Alpha virt. eigenvalues --    0.45758   0.46454   0.48438   0.49692   0.49935
 Alpha virt. eigenvalues --    0.53808   0.55982   0.57690   0.59045   0.60619
 Alpha virt. eigenvalues --    0.63527   0.65031   0.68258   0.70091   0.71153
 Alpha virt. eigenvalues --    0.74670   0.79059   0.80484   0.81386   0.82473
 Alpha virt. eigenvalues --    0.83461   0.84373   0.84989   0.85833   0.86963
 Alpha virt. eigenvalues --    0.89356   0.90830   0.92365   0.93320   0.96536
 Alpha virt. eigenvalues --    0.97710   0.98687   1.03648   1.05134   1.06203
 Alpha virt. eigenvalues --    1.07590   1.12858   1.13733   1.14129   1.16970
 Alpha virt. eigenvalues --    1.17277   1.18674   1.23686   1.24203   1.28255
 Alpha virt. eigenvalues --    1.31459   1.37035   1.39730   1.44349   1.47269
 Alpha virt. eigenvalues --    1.50686   1.60230   1.61143   1.61857   1.64027
 Alpha virt. eigenvalues --    1.68345   1.69878   1.71667   1.72601   1.75125
 Alpha virt. eigenvalues --    1.76416   1.77412   1.79109   1.80291   1.82787
 Alpha virt. eigenvalues --    1.86395   1.96678   1.98116   2.00150   2.01551
 Alpha virt. eigenvalues --    2.01976   2.03218   2.03797   2.04921   2.05540
 Alpha virt. eigenvalues --    2.07748   2.14316   2.18752   2.20080   2.20854
 Alpha virt. eigenvalues --    2.21738   2.25557   2.33574   2.34308   2.36804
 Alpha virt. eigenvalues --    2.40029   2.46321   2.59336   2.61154   2.62600
 Alpha virt. eigenvalues --    2.65350   2.69491   3.14827   3.17381   3.18060
 Alpha virt. eigenvalues --    3.18460   3.19262   3.19735   3.20301   3.20907
 Alpha virt. eigenvalues --    3.23003   3.24017   3.24604   3.26298   3.26880
 Alpha virt. eigenvalues --    3.27840   3.31354   3.52071   3.54055   3.55142
 Alpha virt. eigenvalues --    3.57327   3.58647   3.76701   3.78460   3.79060
 Alpha virt. eigenvalues --    3.80158   3.83831
          Condensed to atoms (all electrons):
               1          2          3          4          5          6
     1  O    7.643636   0.344556   0.364174  -0.024649   0.004954   0.006039
     2  H    0.344556   0.584747  -0.098384   0.003479   0.000138  -0.000711
     3  H    0.364174  -0.098384   0.616842   0.003525  -0.000437   0.014857
     4  O   -0.024649   0.003479   0.003525   7.692918   0.282623   0.395452
     5  H    0.004954   0.000138  -0.000437   0.282623   0.612473  -0.127012
     6  H    0.006039  -0.000711   0.014857   0.395452  -0.127012   0.628193
     7  O   -0.032255   0.003020   0.002622  -0.013925   0.001821   0.001132
     8  H    0.004756   0.000620  -0.000530  -0.000493   0.000246   0.000104
     9  H   -0.003545   0.000083   0.001865   0.015254  -0.000184  -0.000163
    10  O    0.001186   0.001130   0.000129   0.002519   0.000575   0.000865
    11  H   -0.000362  -0.000056  -0.000159   0.000399  -0.000077  -0.000062
    12  H   -0.000019   0.000049  -0.000120  -0.000228  -0.000028  -0.000080
    13  O   -0.010512   0.003540   0.000142   0.003903   0.000145  -0.002649
    14  H    0.000253   0.000014  -0.000531  -0.003908   0.000107  -0.003070
    15  H    0.000973  -0.000316   0.000399   0.002099  -0.000137   0.000545
    16  Na  -0.027162  -0.005486  -0.030058  -0.035130   0.027269  -0.053981
               7          8          9         10         11         12
     1  O   -0.032255   0.004756  -0.003545   0.001186  -0.000362  -0.000019
     2  H    0.003020   0.000620   0.000083   0.001130  -0.000056   0.000049
     3  H    0.002622  -0.000530   0.001865   0.000129  -0.000159  -0.000120
     4  O   -0.013925  -0.000493   0.015254   0.002519   0.000399  -0.000228
     5  H    0.001821   0.000246  -0.000184   0.000575  -0.000077  -0.000028
     6  H    0.001132   0.000104  -0.000163   0.000865  -0.000062  -0.000080
     7  O    7.601720   0.318254   0.326301  -0.019913   0.002317   0.001956
     8  H    0.318254   0.611345  -0.103543   0.001842   0.001093   0.000375
     9  H    0.326301  -0.103543   0.646292   0.001213   0.000457  -0.000480
    10  O   -0.019913   0.001842   0.001213   7.527291   0.335412   0.317363
    11  H    0.002317   0.001093   0.000457   0.335412   0.635684  -0.099192
    12  H    0.001956   0.000375  -0.000480   0.317363  -0.099192   0.625477
    13  O    0.001346   0.000153   0.000201  -0.010476  -0.000145   0.000580
    14  H   -0.000096   0.000025  -0.000593  -0.000039   0.000483  -0.000105
    15  H    0.000212   0.000092  -0.000384   0.000165  -0.000227  -0.000407
    16  Na   0.001505   0.007556  -0.007320   0.019611  -0.000896   0.009867
              13         14         15         16
     1  O   -0.010512   0.000253   0.000973  -0.027162
     2  H    0.003540   0.000014  -0.000316  -0.005486
     3  H    0.000142  -0.000531   0.000399  -0.030058
     4  O    0.003903  -0.003908   0.002099  -0.035130
     5  H    0.000145   0.000107  -0.000137   0.027269
     6  H   -0.002649  -0.003070   0.000545  -0.053981
     7  O    0.001346  -0.000096   0.000212   0.001505
     8  H    0.000153   0.000025   0.000092   0.007556
     9  H    0.000201  -0.000593  -0.000384  -0.007320
    10  O   -0.010476  -0.000039   0.000165   0.019611
    11  H   -0.000145   0.000483  -0.000227  -0.000896
    12  H    0.000580  -0.000105  -0.000407   0.009867
    13  O    7.554010   0.323054   0.322930   0.014456
    14  H    0.323054   0.608117  -0.089086   0.005136
    15  H    0.322930  -0.089086   0.624341   0.010915
    16  Na   0.014456   0.005136   0.010915  10.360694
 Mulliken charges:
               1
     1  O   -0.272023
     2  H    0.163577
     3  H    0.125664
     4  O   -0.323838
     5  H    0.197525
     6  H    0.140541
     7  O   -0.196015
     8  H    0.158104
     9  H    0.124544
    10  O   -0.178873
    11  H    0.125329
    12  H    0.144992
    13  O   -0.200677
    14  H    0.160240
    15  H    0.127886
    16  Na   0.703024
 Sum of Mulliken charges =   1.00000
 Mulliken charges with hydrogens summed into heavy atoms:
               1
     1  O    0.017219
     4  O    0.014228
     7  O    0.086632
    10  O    0.091448
    13  O    0.087449
    16  Na   0.703024
 APT charges:
               1
     1  O   -0.548992
     2  H    0.302350
     3  H    0.279444
     4  O   -0.561128
     5  H    0.299928
     6  H    0.280736
     7  O   -0.545579
     8  H    0.293789
     9  H    0.282041
    10  O   -0.548105
    11  H    0.279453
    12  H    0.285271
    13  O   -0.543549
    14  H    0.287778
    15  H    0.286483
    16  Na   0.870079
 Sum of APT charges =   1.00000
 APT charges with hydrogens summed into heavy atoms:
               1
     1  O    0.032802
     4  O    0.019536
     7  O    0.030252
    10  O    0.016620
    13  O    0.030712
    16  Na   0.870079
 Electronic spatial extent (au):  <R**2>=           1179.2878
 Charge=              1.0000 electrons
 Dipole moment (field-independent basis, Debye):
    X=              1.4400    Y=             -0.3225    Z=             -0.7394  Tot=              1.6505
 Quadrupole moment (field-independent basis, Debye-Ang):
   XX=             -8.1451   YY=            -22.5864   ZZ=            -24.4336
   XY=             -2.1323   XZ=             -4.3196   YZ=             -1.3479
 Traceless Quadrupole moment (field-independent basis, Debye-Ang):
   XX=             10.2433   YY=             -4.1980   ZZ=             -6.0453
   XY=             -2.1323   XZ=             -4.3196   YZ=             -1.3479
 Octapole moment (field-independent basis, Debye-Ang**2):
  XXX=             -3.7967  YYY=             16.0763  ZZZ=             12.0083  XYY=            -12.6327
  XXY=            -10.6305  XXZ=              5.3649  XZZ=             21.1004  YZZ=             -6.4480
  YYZ=            -18.5753  XYZ=            -17.3850
 Hexadecapole moment (field-independent basis, Debye-Ang**3):
 XXXX=           -350.6014 YYYY=           -375.9764 ZZZZ=           -131.0273 XXXY=            -25.5214
 XXXZ=            -72.1386 YYYX=              2.9762 YYYZ=            -13.7005 ZZZX=              7.9959
 ZZZY=             -8.2874 XXYY=           -104.8828 XXZZ=            -87.5922 YYZZ=           -104.4743
 XXYZ=              3.1402 YYXZ=              3.3789 ZZXY=             -4.0273
 N-N= 3.024770983703D+02 E-N=-1.887988996421D+03  KE= 5.414733956664D+02
  Exact polarizability:  47.605  -0.370  46.853  -0.863   0.057  45.316
 Approx polarizability:  56.940  -1.254  54.588  -1.794  -0.473  56.539
 Calling FoFJK, ICntrl=    100127 FMM=F ISym2X=0 I1Cent= 0 IOpClX= 0 NMat=1 NMatS=1 NMatT=0.
 ***** Axes restored to original set *****
 -------------------------------------------------------------------
 Center     Atomic                   Forces (Hartrees/Bohr)
 Number     Number              X              Y              Z
 -------------------------------------------------------------------
      1        8           0.006616217   -0.001084328    0.003904263
      2        1          -0.002756549   -0.001712649   -0.009388757
      3        1          -0.008304708    0.003488933    0.002102328
      4        8           0.000520856   -0.011019589   -0.001991246
      5        1           0.006240550    0.005724895    0.006405219
      6        1          -0.005192532    0.005784630   -0.002490940
      7        8           0.004153020    0.002398749   -0.011083873
      8        1          -0.002844521   -0.007383190    0.004953395
      9        1           0.000041332    0.007743326    0.010305312
     10        8          -0.000719397    0.015019598    0.001898747
     11        1          -0.006865407   -0.006577779    0.002733743
     12        1           0.005994602   -0.005070278   -0.006060409
     13        8          -0.010064440   -0.007110597    0.002803947
     14        1           0.000746915    0.010714113    0.000705457
     15        1           0.009982044   -0.004000817   -0.002032765
     16       11           0.002452020   -0.006915018   -0.002764421
 -------------------------------------------------------------------
 Cartesian Forces:  Max     0.015019598 RMS     0.006176910

 GradGradGradGradGradGradGradGradGradGradGradGradGradGradGradGradGradGrad
 Berny optimization.
 Search for a local minimum.
 Step number   1 out of a maximum of  500
 All quantities printed in internal units (Hartrees-Bohrs-Radians)
 Second derivative matrix not updated -- analytic derivatives used.
 ITU=  0
     Eigenvalues ---   -0.00934  -0.00741  -0.00667  -0.00611  -0.00547
     Eigenvalues ---   -0.00507  -0.00412  -0.00362  -0.00288  -0.00264
     Eigenvalues ---   -0.00181  -0.00147  -0.00100  -0.00031   0.00045
     Eigenvalues ---    0.00088   0.00144   0.00259   0.00270   0.00481
     Eigenvalues ---    0.00547   0.00674   0.00868   0.01005   0.02405
     Eigenvalues ---    0.03621   0.03922   0.15143   0.15324   0.15784
     Eigenvalues ---    0.16211   0.16585   0.86425   0.87861   0.90942
     Eigenvalues ---    0.95520   0.97056   1.11304   1.13661   1.20552
     Eigenvalues ---    1.22508   1.27551
 RFO step:  Lambda=-1.78003638D-02 EMin=-9.34176142D-03
 Linear search not attempted -- first point.
 Maximum step size (   0.100) exceeded in Quadratic search.
    -- Step size scaled by   0.123
 B after Tr=     0.002555    0.000057   -0.000113
         Rot=    1.000000   -0.000408    0.000311    0.000154 Ang=  -0.06 deg.
 Variable       Old X    -DE/DX   Delta X   Delta X   Delta X     New X
                                 (Linear)    (Quad)   (Total)
    X1       -3.30430   0.00662   0.00000   0.01336   0.01779  -3.28651
    Y1        1.84813  -0.00108   0.00000   0.01637   0.01915   1.86728
    Z1       -2.07537   0.00390   0.00000  -0.01641  -0.01704  -2.09242
    X2       -3.94299  -0.00276   0.00000  -0.02634  -0.02093  -3.96392
    Y2        1.71075  -0.00171   0.00000  -0.02182  -0.01747   1.69328
    Z2       -3.76101  -0.00939   0.00000  -0.00022  -0.00141  -3.76242
    X3       -4.16790  -0.00830   0.00000  -0.03509  -0.03067  -4.19858
    Y3        3.27546   0.00349   0.00000  -0.02009  -0.01762   3.25785
    Z3       -1.37619   0.00210   0.00000   0.00175   0.00168  -1.37451
    X4        0.18139   0.00052   0.00000  -0.01484  -0.01207   0.16932
    Y4        4.21895  -0.01102   0.00000  -0.00005  -0.00148   4.21747
    Z4        1.75291  -0.00199   0.00000   0.00394   0.00737   1.76028
    X5        1.26799   0.00624   0.00000   0.00318   0.00596   1.27395
    Y5        5.52167   0.00572   0.00000  -0.00652  -0.00879   5.51288
    Z5        2.37746   0.00641   0.00000  -0.00749  -0.00231   2.37515
    X6       -1.21509  -0.00519   0.00000   0.00055   0.00406  -1.21104
    Y6        5.10595   0.00578   0.00000   0.01259   0.01220   5.11815
    Z6        1.02140  -0.00249   0.00000  -0.01427  -0.01096   1.01043
    X7       -2.91963   0.00415   0.00000   0.03628   0.03647  -2.88316
    Y7       -1.16959   0.00240   0.00000   0.00097  -0.00071  -1.17030
    Z7        3.21820  -0.01108   0.00000   0.00385   0.00099   3.21920
    X8       -3.14450  -0.00284   0.00000   0.00091  -0.00000  -3.14451
    Y8       -2.61238  -0.00738   0.00000   0.00645   0.00398  -2.60840
    Z8        4.28533   0.00495   0.00000   0.00681   0.00262   4.28795
    X9       -2.18263   0.00004   0.00000  -0.00999  -0.01009  -2.19272
    Y9        0.08183   0.00774   0.00000   0.01522   0.01243   0.09426
    Z9        4.29686   0.01031   0.00000   0.02175   0.02035   4.31721
   X10        1.47907  -0.00072   0.00000  -0.01305  -0.01214   1.46693
   Y10       -4.66743   0.01502   0.00000   0.01655   0.01587  -4.65156
   Z10        0.36324   0.00190   0.00000  -0.02066  -0.02366   0.33958
   X11       -0.04199  -0.00687   0.00000  -0.00336  -0.00293  -0.04492
   Y11       -5.61060  -0.00658   0.00000   0.00428   0.00384  -5.60676
   Z11        0.62403   0.00273   0.00000   0.00517   0.00045   0.62448
   X12        2.30923   0.00599   0.00000  -0.00944  -0.00796   2.30127
   Y12       -5.51346  -0.00507   0.00000  -0.00300  -0.00283  -5.51629
   Z12       -1.00305  -0.00606   0.00000  -0.00916  -0.01234  -1.01539
   X13        3.32014  -0.01006   0.00000  -0.00340   0.00126   3.32140
   Y13        1.50798  -0.00711   0.00000  -0.01452  -0.01332   1.49466
   Z13       -2.68766   0.00280   0.00000   0.03698   0.04014  -2.64752
   X14        3.41328   0.00075   0.00000   0.00665   0.01144   3.42472
   Y14        3.17982   0.01071   0.00000   0.00889   0.00954   3.18936
   Z14       -2.00358   0.00071   0.00000  -0.01708  -0.01247  -2.01605
   X15        4.96456   0.00998   0.00000   0.00947   0.01377   4.97832
   Y15        0.81048  -0.00400   0.00000  -0.00009   0.00039   0.81087
   Z15       -2.40419  -0.00203   0.00000   0.00830   0.01193  -2.39225
   X16        0.00000   0.00245   0.00000   0.00349   0.00604   0.00604
   Y16        0.00000  -0.00692   0.00000  -0.01524  -0.01518  -0.01518
   Z16        0.00000  -0.00276   0.00000  -0.00523  -0.00535  -0.00535
         Item               Value     Threshold  Converged?
 Maximum Force            0.015020     0.000450     NO 
 RMS     Force            0.006177     0.000300     NO 
 Maximum Displacement     0.040142     0.001800     NO 
 RMS     Displacement     0.014146     0.001200     NO 
 Predicted change in Energy=-1.563750D-03
 GradGradGradGradGradGradGradGradGradGradGradGradGradGradGradGradGradGrad

                          Input orientation:                          
 ---------------------------------------------------------------------
 Center     Atomic      Atomic             Coordinates (Angstroms)
 Number     Number       Type             X           Y           Z
 ---------------------------------------------------------------------
      1          8           0       -1.739144    0.988122   -1.107259
      2          1           0       -2.097614    0.896046   -1.990988
      3          1           0       -2.221791    1.723978   -0.727359
      4          8           0        0.089601    2.231787    0.931502
      5          1           0        0.674144    2.917288    1.256876
      6          1           0       -0.640853    2.708406    0.534698
      7          8           0       -1.525700   -0.619298    1.703525
      8          1           0       -1.664001   -1.380304    2.269087
      9          1           0       -1.160338    0.049879    2.284571
     10          8           0        0.776264   -2.461500    0.179700
     11          1           0       -0.023770   -2.966968    0.330459
     12          1           0        1.217780   -2.919097   -0.537320
     13          8           0        1.757607    0.790941   -1.401008
     14          1           0        1.812286    1.687737   -1.066849
     15          1           0        2.634415    0.429096   -1.265924
     16         11           0        0.003196   -0.008032   -0.002830
 ---------------------------------------------------------------------
                    Distance matrix (angstroms):
                    1          2          3          4          5
     1  O    0.000000
     2  H    0.958100   0.000000
     3  H    0.958518   1.515801   0.000000
     4  O    3.007916   3.887038   2.890021   0.000000
     5  H    3.890344   4.724054   3.707778   0.957847   0.000000
     6  H    2.619474   3.433059   2.249723   0.958217   1.514724
     7  O    3.244975   4.033953   3.447416   3.366586   4.188824
     8  H    4.124900   4.849539   4.350446   4.232192   4.996077
     9  H    3.566487   4.458126   3.605691   2.855497   3.555772
    10  O    4.459084   4.923837   5.227744   4.802463   5.486537
    11  H    4.544478   4.961132   5.287273   5.234612   5.997483
    12  H    4.933011   5.259306   5.781428   5.473741   6.130096
    13  O    3.514603   3.901519   4.142459   3.209187   3.572057
    14  H    3.619911   4.094891   4.048500   2.693890   2.864762
    15  H    4.411995   4.809974   5.054652   3.815030   4.049480
    16  Na   2.290815   3.030434   2.911248   2.428422   3.254924
                    6          7          8          9         10
     6  H    0.000000
     7  O    3.636306   0.000000
     8  H    4.557684   0.958185   0.000000
     9  H    3.224854   0.958593   1.516357   0.000000
    10  O    5.372352   3.318854   3.389604   3.806301   0.000000
    11  H    5.712476   3.106873   2.994351   3.769841   0.958270
    12  H    6.022668   4.223405   4.306793   4.736384   0.958358
    13  O    3.629909   4.733603   5.467294   4.758893   3.747004
    14  H    3.102355   4.913200   5.711910   4.769810   4.454592
    15  H    4.377770   5.217596   5.852060   5.210563   3.728015
    16  Na   2.843022   2.371248   3.134371   2.566976   2.578847
                   11         12         13         14         15
    11  H    0.000000
    12  H    1.515513   0.000000
    13  O    4.504793   3.847304   0.000000
    14  H    5.195177   4.675122   0.958591   0.000000
    15  H    4.598656   3.707845   0.958108   1.516478   0.000000
    16  Na   2.977770   3.199249   2.381432   2.698255   2.951237
                   16
    16  Na   0.000000
 Stoichiometry    H10NaO5(1+)
 Framework group  C1[X(H10NaO5)]
 Deg. of freedom    42
 Full point group                 C1      NOp   1
 Largest Abelian subgroup         C1      NOp   1
 Largest concise Abelian subgroup C1      NOp   1
                         Standard orientation:                         
 ---------------------------------------------------------------------
 Center     Atomic      Atomic             Coordinates (Angstroms)
 Number     Number       Type             X           Y           Z
 ---------------------------------------------------------------------
      1          8           0        1.161639   -0.719811    1.678352
      2          1           0        1.265668   -0.519149    2.609409
      3          1           0        1.857246   -1.351578    1.489254
      4          8           0        1.838729   -0.380435   -1.232650
      5          1           0        2.396535   -0.096744   -1.957800
      6          1           0        2.445011   -0.775473   -0.604520
      7          8           0       -0.943943   -2.075350   -0.385359
      8          1           0       -1.779235   -2.486663   -0.611690
      9          1           0       -0.428503   -2.115923   -1.192562
     10          8           0       -2.681865    0.732616   -0.054092
     11          1           0       -3.130352   -0.000942    0.369031
     12          1           0       -3.039835    1.511858    0.373798
     13          8           0        0.699593    2.345090    0.021448
     14          1           0        1.511517    2.179600   -0.460516
     15          1           0        0.239871    3.004895   -0.499403
     16         11           0       -0.175559    0.130295    0.023946
 ---------------------------------------------------------------------
 Rotational constants (GHZ):           1.7204337           1.4734737           1.0952940
 Standard basis: Aug-CC-pVDZ (5D, 7F)
 There are   244 symmetry adapted cartesian basis functions of A   symmetry.
 There are   232 symmetry adapted basis functions of A   symmetry.
   232 basis functions,   406 primitive gaussians,   244 cartesian basis functions
    30 alpha electrons       30 beta electrons
       nuclear repulsion energy       302.8488402920 Hartrees.
 NAtoms=   16 NActive=   16 NUniq=   16 SFac= 1.00D+00 NAtFMM=   60 NAOKFM=F Big=F
 Integral buffers will be    131072 words long.
 Raffenetti 2 integral format.
 Two-electron integral symmetry is turned on.
 Nuclear repulsion after empirical dispersion term =      302.8399070398 Hartrees.
 One-electron integrals computed using PRISM.
 NBasis=   232 RedAO= T EigKep=  2.90D-04  NBF=   232
 NBsUse=   232 1.00D-06 EigRej= -1.00D+00 NBFU=   232
 Initial guess from the checkpoint file:  "sim010_type3_coord-5_1-4-0_10C_b1_id81750_step4840.chk"
 B after Tr=    -0.000000    0.000000   -0.000000
         Rot=    0.999980    0.001258   -0.000228   -0.006183 Ang=   0.72 deg.
 ExpMin= 6.16D-03 ExpMax= 3.17D+04 ExpMxC= 1.08D+03 IAcc=3 IRadAn=         5 AccDes= 0.00D+00
 Harris functional with IExCor=  402 and IRadAn=       5 diagonalized for initial guess.
 HarFok:  IExCor=  402 AccDes= 0.00D+00 IRadAn=         5 IDoV= 1 UseB2=F ITyADJ=14
 ICtDFT=  3500011 ScaDFX=  1.000000  1.000000  1.000000  1.000000
 FoFCou: FMM=F IPFlag=           0 FMFlag=      100000 FMFlg1=           0
         NFxFlg=           0 DoJE=T BraDBF=F KetDBF=T FulRan=T
         wScrn=  0.000000 ICntrl=       500 IOpCl=  0 I1Cent=   200000004 NGrid=           0
         NMat0=    1 NMatS0=      1 NMatT0=    0 NMatD0=    1 NMtDS0=    0 NMtDT0=    0
 Petite list used in FoFCou.
 Requested convergence on RMS density matrix=1.00D-08 within 500 cycles.
 Requested convergence on MAX density matrix=1.00D-06.
 Requested convergence on             energy=1.00D-06.
 No special actions if energy rises.
 SCF Done:  E(RB3LYP) =  -544.444972392     A.U. after    8 cycles
            NFock=  8  Conv=0.89D-08     -V/T= 2.0055
 DoSCS=F DFT=T ScalE2(SS,OS)=  1.000000  1.000000
 Range of M.O.s used for correlation:     1   232
 NBasis=   232 NAE=    30 NBE=    30 NFC=     0 NFV=     0
 NROrb=    232 NOA=    30 NOB=    30 NVA=   202 NVB=   202

 **** Warning!!: The largest alpha MO coefficient is  0.14081022D+02

 Symmetrizing basis deriv contribution to polar:
 IMax=3 JMax=2 DiffMx= 0.00D+00
 G2DrvN: will do    17 centers at a time, making    1 passes.
 Calling FoFCou, ICntrl=  3107 FMM=F I1Cent=   0 AccDes= 1.00D-11.
 End of G2Drv F.D. properties file   721 does not exist.
 End of G2Drv F.D. properties file   722 does not exist.
 End of G2Drv F.D. properties file   788 does not exist.
          IDoAtm=1111111111111111
          Differentiating once with respect to electric field.
                with respect to dipole field.
          Differentiating once with respect to nuclear coordinates.
 Keep R1 ints in memory in canonical form, NReq=408195318.
          There are    51 degrees of freedom in the 1st order CPHF.  IDoFFX=6 NUNeed=     3.
     48 vectors produced by pass  0 Test12= 1.19D-14 1.96D-09 XBig12= 2.24D+01 1.12D+00.
 AX will form    48 AO Fock derivatives at one time.
     48 vectors produced by pass  1 Test12= 1.19D-14 1.96D-09 XBig12= 2.33D+00 2.13D-01.
     48 vectors produced by pass  2 Test12= 1.19D-14 1.96D-09 XBig12= 3.05D-02 2.12D-02.
     48 vectors produced by pass  3 Test12= 1.19D-14 1.96D-09 XBig12= 8.39D-05 1.11D-03.
     48 vectors produced by pass  4 Test12= 1.19D-14 1.96D-09 XBig12= 1.19D-07 3.46D-05.
     21 vectors produced by pass  5 Test12= 1.19D-14 1.96D-09 XBig12= 8.62D-11 9.20D-07.
      3 vectors produced by pass  6 Test12= 1.19D-14 1.96D-09 XBig12= 5.70D-14 2.42D-08.
 InvSVY:  IOpt=1 It=  1 EMax= 4.44D-15
 Solved reduced A of dimension   264 with    51 vectors.
 Isotropic polarizability for W=    0.000000       46.63 Bohr**3.
 End of Minotr F.D. properties file   721 does not exist.
 End of Minotr F.D. properties file   722 does not exist.
 End of Minotr F.D. properties file   788 does not exist.
 Calling FoFJK, ICntrl=    100127 FMM=F ISym2X=0 I1Cent= 0 IOpClX= 0 NMat=1 NMatS=1 NMatT=0.
 ***** Axes restored to original set *****
 -------------------------------------------------------------------
 Center     Atomic                   Forces (Hartrees/Bohr)
 Number     Number              X              Y              Z
 -------------------------------------------------------------------
      1        8           0.005559250   -0.000122528    0.002963855
      2        1          -0.002267644   -0.001646891   -0.007893809
      3        1          -0.007545885    0.002286435    0.001782089
      4        8           0.000436019   -0.009602457   -0.001767689
      5        1           0.005436821    0.004764635    0.005900187
      6        1          -0.004379517    0.005225023   -0.002265096
      7        8           0.004279116    0.002240659   -0.009349171
      8        1          -0.002682300   -0.006283033    0.004201884
      9        1          -0.000475303    0.006770179    0.009188894
     10        8          -0.001175098    0.013589187    0.001024794
     11        1          -0.005752595   -0.005897149    0.002659476
     12        1           0.005399633   -0.004463945   -0.005094348
     13        8          -0.008636669   -0.006057723    0.003262812
     14        1           0.000664949    0.009041676    0.000032876
     15        1           0.008827867   -0.003413885   -0.002132574
     16       11           0.002311355   -0.006430184   -0.002514183
 -------------------------------------------------------------------
 Cartesian Forces:  Max     0.013589187 RMS     0.005407040

 GradGradGradGradGradGradGradGradGradGradGradGradGradGradGradGradGradGrad
 Berny optimization.
 Search for a local minimum.
 Step number   2 out of a maximum of  500
 All quantities printed in internal units (Hartrees-Bohrs-Radians)
 Second derivative matrix not updated -- analytic derivatives used.
 DE= -1.56D-03 DEPred=-1.56D-03 R= 9.95D-01
 TightC=F SS=  1.41D+00  RLast= 9.80D-02 DXNew= 1.6818D-01 2.9402D-01
 Trust test= 9.95D-01 RLast= 9.80D-02 DXMaxT set to 1.68D-01
 ITU=  1  0
 Linear search step of   0.187 exceeds DXMaxT=   0.168 but not scaled.
 Quintic linear search produced a step of  1.90687.
 B after Tr=     0.000000    0.000000    0.000000
         Rot=    1.000000    0.000000   -0.000000   -0.000000 Ang=   0.00 deg.
 Variable       Old X    -DE/DX   Delta X   Delta X   Delta X     New X
                                 (Linear)    (Quad)   (Total)
    X1       -3.28651   0.00556   0.03393   0.00000   0.03393  -3.25258
    Y1        1.86728  -0.00012   0.03651   0.00000   0.03651   1.90379
    Z1       -2.09242   0.00296  -0.03250   0.00000  -0.03250  -2.12492
    X2       -3.96392  -0.00227  -0.03990   0.00000  -0.03990  -4.00382
    Y2        1.69328  -0.00165  -0.03331   0.00000  -0.03331   1.65997
    Z2       -3.76242  -0.00789  -0.00270   0.00000  -0.00270  -3.76512
    X3       -4.19858  -0.00755  -0.05849   0.00000  -0.05849  -4.25707
    Y3        3.25785   0.00229  -0.03359   0.00000  -0.03359   3.22425
    Z3       -1.37451   0.00178   0.00321   0.00000   0.00321  -1.37130
    X4        0.16932   0.00044  -0.02302   0.00000  -0.02302   0.14630
    Y4        4.21747  -0.00960  -0.00282   0.00000  -0.00282   4.21464
    Z4        1.76028  -0.00177   0.01406   0.00000   0.01406   1.77434
    X5        1.27395   0.00544   0.01137   0.00000   0.01137   1.28531
    Y5        5.51288   0.00476  -0.01676   0.00000  -0.01676   5.49611
    Z5        2.37515   0.00590  -0.00441   0.00000  -0.00441   2.37074
    X6       -1.21104  -0.00438   0.00774   0.00000   0.00774  -1.20330
    Y6        5.11815   0.00523   0.02326   0.00000   0.02326   5.14141
    Z6        1.01043  -0.00227  -0.02091   0.00000  -0.02091   0.98953
    X7       -2.88316   0.00428   0.06955   0.00000   0.06955  -2.81361
    Y7       -1.17030   0.00224  -0.00136   0.00000  -0.00136  -1.17166
    Z7        3.21920  -0.00935   0.00189   0.00000   0.00189   3.22109
    X8       -3.14451  -0.00268  -0.00000   0.00000  -0.00000  -3.14451
    Y8       -2.60840  -0.00628   0.00759   0.00000   0.00759  -2.60081
    Z8        4.28795   0.00420   0.00500   0.00000   0.00500   4.29295
    X9       -2.19272  -0.00048  -0.01923   0.00000  -0.01923  -2.21195
    Y9        0.09426   0.00677   0.02371   0.00000   0.02371   0.11796
    Z9        4.31721   0.00919   0.03881   0.00000   0.03881   4.35602
   X10        1.46693  -0.00118  -0.02316   0.00000  -0.02316   1.44377
   Y10       -4.65156   0.01359   0.03027   0.00000   0.03027  -4.62129
   Z10        0.33958   0.00102  -0.04512   0.00000  -0.04512   0.29447
   X11       -0.04492  -0.00575  -0.00559   0.00000  -0.00559  -0.05051
   Y11       -5.60676  -0.00590   0.00732   0.00000   0.00732  -5.59944
   Z11        0.62448   0.00266   0.00086   0.00000   0.00086   0.62534
   X12        2.30127   0.00540  -0.01517   0.00000  -0.01517   2.28610
   Y12       -5.51629  -0.00446  -0.00540   0.00000  -0.00540  -5.52169
   Z12       -1.01539  -0.00509  -0.02353   0.00000  -0.02353  -1.03892
   X13        3.32140  -0.00864   0.00240   0.00000   0.00240   3.32380
   Y13        1.49466  -0.00606  -0.02540   0.00000  -0.02540   1.46926
   Z13       -2.64752   0.00326   0.07655   0.00000   0.07655  -2.57098
   X14        3.42472   0.00066   0.02182   0.00000   0.02182   3.44655
   Y14        3.18936   0.00904   0.01819   0.00000   0.01819   3.20755
   Z14       -2.01605   0.00003  -0.02378   0.00000  -0.02378  -2.03983
   X15        4.97832   0.00883   0.02625   0.00000   0.02625   5.00457
   Y15        0.81087  -0.00341   0.00074   0.00000   0.00074   0.81161
   Z15       -2.39225  -0.00213   0.02276   0.00000   0.02276  -2.36949
   X16        0.00604   0.00231   0.01152   0.00000   0.01152   0.01755
   Y16       -0.01518  -0.00643  -0.02894   0.00000  -0.02894  -0.04412
   Z16       -0.00535  -0.00251  -0.01020   0.00000  -0.01020  -0.01555
         Item               Value     Threshold  Converged?
 Maximum Force            0.013589     0.000450     NO 
 RMS     Force            0.005407     0.000300     NO 
 Maximum Displacement     0.076545     0.001800     NO 
 RMS     Displacement     0.026975     0.001200     NO 
 Predicted change in Energy=-2.764907D-03
 GradGradGradGradGradGradGradGradGradGradGradGradGradGradGradGradGradGrad

                          Input orientation:                          
 ---------------------------------------------------------------------
 Center     Atomic      Atomic             Coordinates (Angstroms)
 Number     Number       Type             X           Y           Z
 ---------------------------------------------------------------------
      1          8           0       -1.721190    1.007443   -1.124457
      2          1           0       -2.118730    0.878419   -1.992415
      3          1           0       -2.252742    1.706202   -0.725659
      4          8           0        0.077417    2.230294    0.938943
      5          1           0        0.680159    2.908417    1.254543
      6          1           0       -0.636758    2.720717    0.523635
      7          8           0       -1.488898   -0.620017    1.704525
      8          1           0       -1.664004   -1.376288    2.271731
      9          1           0       -1.170516    0.062423    2.305108
     10          8           0        0.764010   -2.445481    0.155825
     11          1           0       -0.026726   -2.963095    0.330915
     12          1           0        1.209751   -2.921953   -0.549773
     13          8           0        1.758878    0.777499   -1.360502
     14          1           0        1.823835    1.697362   -1.079432
     15          1           0        2.648305    0.429487   -1.253881
     16         11           0        0.009289   -0.023349   -0.008228
 ---------------------------------------------------------------------
                    Distance matrix (angstroms):
                    1          2          3          4          5
     1  O    0.000000
     2  H    0.963346   0.000000
     3  H    0.964288   1.519163   0.000000
     4  O    2.997994   3.904291   2.911222   0.000000
     5  H    3.878121   4.743143   3.737436   0.960600   0.000000
     6  H    2.612951   3.452653   2.280654   0.960750   1.517803
     7  O    3.271961   4.038486   3.449717   3.341217   4.166190
     8  H    4.149643   4.844938   4.339666   4.220936   4.988834
     9  H    3.599753   4.475899   3.613692   2.850159   3.553641
    10  O    4.442750   4.896267   5.207137   4.790360   5.466117
    11  H    4.555709   4.952935   5.279567   5.229897   5.985601
    12  H    4.935669   5.253839   5.782699   5.481250   6.126111
    13  O    3.495635   3.930057   4.166367   3.197713   3.541597
    14  H    3.611817   4.128926   4.091909   2.721733   2.867418
    15  H    4.409453   4.844750   5.092081   3.828948   4.038673
    16  Na   2.302837   3.046088   2.936467   2.445543   3.261887
                    6          7          8          9         10
     6  H    0.000000
     7  O    3.644331   0.000000
     8  H    4.571271   0.961420   0.000000
     9  H    3.244236   0.963220   1.521359   0.000000
    10  O    5.365355   3.287306   3.393447   3.827714   0.000000
    11  H    5.719702   3.084600   2.994228   3.789387   0.961168
    12  H    6.033367   4.202794   4.313750   4.766814   0.961030
    13  O    3.614573   4.679262   5.435810   4.746512   3.698190
    14  H    3.109919   4.908652   5.730850   4.805651   4.451094
    15  H    4.381887   5.193273   5.855491   5.233024   3.715277
    16  Na   2.868824   2.352467   3.135054   2.598234   2.542290
                   11         12         13         14         15
    11  H    0.000000
    12  H    1.518612   0.000000
    13  O    4.476752   3.826848   0.000000
    14  H    5.208984   4.689958   0.964037   0.000000
    15  H    4.601846   3.714480   0.961021   1.522396   0.000000
    16  Na   2.959463   3.183753   2.351821   2.720460   2.953154
                   16
    16  Na   0.000000
 Stoichiometry    H10NaO5(1+)
 Framework group  C1[X(H10NaO5)]
 Deg. of freedom    42
 Full point group                 C1      NOp   1
 Largest Abelian subgroup         C1      NOp   1
 Largest concise Abelian subgroup C1      NOp   1
                         Standard orientation:                         
 ---------------------------------------------------------------------
 Center     Atomic      Atomic             Coordinates (Angstroms)
 Number     Number       Type             X           Y           Z
 ---------------------------------------------------------------------
      1          8           0        1.193923   -0.668647    1.685606
      2          1           0        1.256493   -0.504340    2.632773
      3          1           0        1.869896   -1.335888    1.519166
      4          8           0        1.849312   -0.360030   -1.223550
      5          1           0        2.394832   -0.045079   -1.948785
      6          1           0        2.477595   -0.715920   -0.589797
      7          8           0       -0.900138   -2.071067   -0.400984
      8          1           0       -1.716989   -2.532944   -0.610157
      9          1           0       -0.367017   -2.151873   -1.199135
     10          8           0       -2.675745    0.671419   -0.037158
     11          1           0       -3.125659   -0.077056    0.364349
     12          1           0       -3.073120    1.440565    0.380079
     13          8           0        0.627207    2.334678   -0.010960
     14          1           0        1.474235    2.224741   -0.457977
     15          1           0        0.171000    3.009114   -0.521423
     16         11           0       -0.192521    0.130715    0.029752
 ---------------------------------------------------------------------
 Rotational constants (GHZ):           1.7390910           1.4779092           1.1072545
 Standard basis: Aug-CC-pVDZ (5D, 7F)
 There are   244 symmetry adapted cartesian basis functions of A   symmetry.
 There are   232 symmetry adapted basis functions of A   symmetry.
   232 basis functions,   406 primitive gaussians,   244 cartesian basis functions
    30 alpha electrons       30 beta electrons
       nuclear repulsion energy       303.4746576015 Hartrees.
 NAtoms=   16 NActive=   16 NUniq=   16 SFac= 1.00D+00 NAtFMM=   60 NAOKFM=F Big=F
 Integral buffers will be    131072 words long.
 Raffenetti 2 integral format.
 Two-electron integral symmetry is turned on.
 Nuclear repulsion after empirical dispersion term =      303.4657614732 Hartrees.
 One-electron integrals computed using PRISM.
 NBasis=   232 RedAO= T EigKep=  2.89D-04  NBF=   232
 NBsUse=   232 1.00D-06 EigRej= -1.00D+00 NBFU=   232
 Initial guess from the checkpoint file:  "sim010_type3_coord-5_1-4-0_10C_b1_id81750_step4840.chk"
 B after Tr=     0.000000   -0.000000    0.000000
         Rot=    0.999935    0.002468   -0.000456   -0.011124 Ang=   1.31 deg.
 ExpMin= 6.16D-03 ExpMax= 3.17D+04 ExpMxC= 1.08D+03 IAcc=3 IRadAn=         5 AccDes= 0.00D+00
 Harris functional with IExCor=  402 and IRadAn=       5 diagonalized for initial guess.
 HarFok:  IExCor=  402 AccDes= 0.00D+00 IRadAn=         5 IDoV= 1 UseB2=F ITyADJ=14
 ICtDFT=  3500011 ScaDFX=  1.000000  1.000000  1.000000  1.000000
 FoFCou: FMM=F IPFlag=           0 FMFlag=      100000 FMFlg1=           0
         NFxFlg=           0 DoJE=T BraDBF=F KetDBF=T FulRan=T
         wScrn=  0.000000 ICntrl=       500 IOpCl=  0 I1Cent=   200000004 NGrid=           0
         NMat0=    1 NMatS0=      1 NMatT0=    0 NMatD0=    1 NMtDS0=    0 NMtDT0=    0
 Petite list used in FoFCou.
 Requested convergence on RMS density matrix=1.00D-08 within 500 cycles.
 Requested convergence on MAX density matrix=1.00D-06.
 Requested convergence on             energy=1.00D-06.
 No special actions if energy rises.
 SCF Done:  E(RB3LYP) =  -544.447659285     A.U. after    9 cycles
            NFock=  9  Conv=0.22D-08     -V/T= 2.0056
 DoSCS=F DFT=T ScalE2(SS,OS)=  1.000000  1.000000
 Range of M.O.s used for correlation:     1   232
 NBasis=   232 NAE=    30 NBE=    30 NFC=     0 NFV=     0
 NROrb=    232 NOA=    30 NOB=    30 NVA=   202 NVB=   202

 **** Warning!!: The largest alpha MO coefficient is  0.14375455D+02

 Symmetrizing basis deriv contribution to polar:
 IMax=3 JMax=2 DiffMx= 0.00D+00
 G2DrvN: will do    17 centers at a time, making    1 passes.
 Calling FoFCou, ICntrl=  3107 FMM=F I1Cent=   0 AccDes= 1.00D-11.
 End of G2Drv F.D. properties file   721 does not exist.
 End of G2Drv F.D. properties file   722 does not exist.
 End of G2Drv F.D. properties file   788 does not exist.
          IDoAtm=1111111111111111
          Differentiating once with respect to electric field.
                with respect to dipole field.
          Differentiating once with respect to nuclear coordinates.
 Keep R1 ints in memory in canonical form, NReq=408195318.
          There are    51 degrees of freedom in the 1st order CPHF.  IDoFFX=6 NUNeed=     3.
     48 vectors produced by pass  0 Test12= 1.19D-14 1.96D-09 XBig12= 2.25D+01 1.07D+00.
 AX will form    48 AO Fock derivatives at one time.
     48 vectors produced by pass  1 Test12= 1.19D-14 1.96D-09 XBig12= 2.23D+00 1.97D-01.
     48 vectors produced by pass  2 Test12= 1.19D-14 1.96D-09 XBig12= 2.79D-02 2.14D-02.
     48 vectors produced by pass  3 Test12= 1.19D-14 1.96D-09 XBig12= 7.55D-05 1.00D-03.
     48 vectors produced by pass  4 Test12= 1.19D-14 1.96D-09 XBig12= 1.05D-07 3.33D-05.
     21 vectors produced by pass  5 Test12= 1.19D-14 1.96D-09 XBig12= 7.70D-11 9.28D-07.
      3 vectors produced by pass  6 Test12= 1.19D-14 1.96D-09 XBig12= 5.36D-14 2.63D-08.
 InvSVY:  IOpt=1 It=  1 EMax= 4.44D-15
 Solved reduced A of dimension   264 with    51 vectors.
 Isotropic polarizability for W=    0.000000       46.78 Bohr**3.
 End of Minotr F.D. properties file   721 does not exist.
 End of Minotr F.D. properties file   722 does not exist.
 End of Minotr F.D. properties file   788 does not exist.
 Calling FoFJK, ICntrl=    100127 FMM=F ISym2X=0 I1Cent= 0 IOpClX= 0 NMat=1 NMatS=1 NMatT=0.
 ***** Axes restored to original set *****
 -------------------------------------------------------------------
 Center     Atomic                   Forces (Hartrees/Bohr)
 Number     Number              X              Y              Z
 -------------------------------------------------------------------
      1        8           0.000005820    0.003608495    0.000264893
      2        1           0.000063604   -0.001373828   -0.003218391
      3        1          -0.003977136   -0.002014985    0.000211244
      4        8           0.000133586   -0.006268183   -0.001587877
      5        1           0.003675078    0.002701887    0.004877753
      6        1          -0.002475196    0.003774517   -0.001518594
      7        8           0.004702478    0.002655947   -0.003712856
      8        1          -0.002136624   -0.003576798    0.002022535
      9        1          -0.001908711    0.003553353    0.005526955
     10        8          -0.002357644    0.010111763   -0.000683951
     11        1          -0.003189888   -0.004191746    0.002366109
     12        1           0.004145392   -0.003020161   -0.003055993
     13        8          -0.004530983   -0.001471208    0.004729970
     14        1           0.000051048    0.003326866   -0.001802501
     15        1           0.005795600   -0.002292538   -0.002410054
     16       11           0.002003575   -0.005523380   -0.002009241
 -------------------------------------------------------------------
 Cartesian Forces:  Max     0.010111763 RMS     0.003492408

 GradGradGradGradGradGradGradGradGradGradGradGradGradGradGradGradGradGrad
 Berny optimization.
 Search for a local minimum.
 Step number   3 out of a maximum of  500
 All quantities printed in internal units (Hartrees-Bohrs-Radians)
 Second derivative matrix not updated -- analytic derivatives used.
 ITU=  0  1  0
 Linear search step of   0.263 exceeds DXMaxT=   0.168 but not scaled.
 Quintic linear search produced a step of  1.40690.
 B after Tr=    -0.000000   -0.000000    0.000000
         Rot=    1.000000   -0.000000    0.000000    0.000000 Ang=   0.00 deg.
 Variable       Old X    -DE/DX   Delta X   Delta X   Delta X     New X
                                 (Linear)    (Quad)   (Total)
    X1       -3.25258   0.00001   0.04773   0.00000   0.04773  -3.20484
    Y1        1.90379   0.00361   0.05137   0.00000   0.05137   1.95516
    Z1       -2.12492   0.00026  -0.04572   0.00000  -0.04572  -2.17064
    X2       -4.00382   0.00006  -0.05614   0.00000  -0.05614  -4.05996
    Y2        1.65997  -0.00137  -0.04686   0.00000  -0.04686   1.61311
    Z2       -3.76512  -0.00322  -0.00379   0.00000  -0.00379  -3.76891
    X3       -4.25707  -0.00398  -0.08229   0.00000  -0.08229  -4.33935
    Y3        3.22425  -0.00201  -0.04726   0.00000  -0.04726   3.17699
    Z3       -1.37130   0.00021   0.00452   0.00000   0.00452  -1.36678
    X4        0.14630   0.00013  -0.03239   0.00000  -0.03239   0.11390
    Y4        4.21464  -0.00627  -0.00397   0.00000  -0.00397   4.21067
    Z4        1.77434  -0.00159   0.01978   0.00000   0.01978   1.79413
    X5        1.28531   0.00368   0.01599   0.00000   0.01599   1.30131
    Y5        5.49611   0.00270  -0.02358   0.00000  -0.02358   5.47253
    Z5        2.37074   0.00488  -0.00620   0.00000  -0.00620   2.36454
    X6       -1.20330  -0.00248   0.01089   0.00000   0.01089  -1.19241
    Y6        5.14141   0.00377   0.03273   0.00000   0.03273   5.17414
    Z6        0.98953  -0.00152  -0.02941   0.00000  -0.02941   0.96011
    X7       -2.81361   0.00470   0.09784   0.00000   0.09784  -2.71576
    Y7       -1.17166   0.00266  -0.00191   0.00000  -0.00191  -1.17358
    Z7        3.22109  -0.00371   0.00266   0.00000   0.00266   3.22375
    X8       -3.14451  -0.00214  -0.00001   0.00000  -0.00001  -3.14452
    Y8       -2.60081  -0.00358   0.01068   0.00000   0.01068  -2.59013
    Z8        4.29295   0.00202   0.00703   0.00000   0.00703   4.29998
    X9       -2.21195  -0.00191  -0.02706   0.00000  -0.02706  -2.23901
    Y9        0.11796   0.00355   0.03335   0.00000   0.03335   0.15131
    Z9        4.35602   0.00553   0.05460   0.00000   0.05460   4.41063
   X10        1.44377  -0.00236  -0.03258   0.00000  -0.03258   1.41119
   Y10       -4.62129   0.01011   0.04259   0.00000   0.04259  -4.57870
   Z10        0.29447  -0.00068  -0.06347   0.00000  -0.06347   0.23099
   X11       -0.05051  -0.00319  -0.00786   0.00000  -0.00786  -0.05836
   Y11       -5.59944  -0.00419   0.01030   0.00000   0.01030  -5.58914
   Z11        0.62534   0.00237   0.00121   0.00000   0.00121   0.62655
   X12        2.28610   0.00415  -0.02135   0.00000  -0.02135   2.26475
   Y12       -5.52169  -0.00302  -0.00759   0.00000  -0.00759  -5.52928
   Z12       -1.03892  -0.00306  -0.03311   0.00000  -0.03311  -1.07203
   X13        3.32380  -0.00453   0.00338   0.00000   0.00338   3.32718
   Y13        1.46926  -0.00147  -0.03574   0.00000  -0.03574   1.43352
   Z13       -2.57098   0.00473   0.10769   0.00000   0.10769  -2.46328
   X14        3.44655   0.00005   0.03070   0.00000   0.03070   3.47725
   Y14        3.20755   0.00333   0.02559   0.00000   0.02559   3.23314
   Z14       -2.03983  -0.00180  -0.03345   0.00000  -0.03345  -2.07329
   X15        5.00457   0.00580   0.03693   0.00000   0.03693   5.04150
   Y15        0.81161  -0.00229   0.00104   0.00000   0.00104   0.81266
   Z15       -2.36949  -0.00241   0.03202   0.00000   0.03202  -2.33747
   X16        0.01755   0.00200   0.01620   0.00000   0.01620   0.03376
   Y16       -0.04412  -0.00552  -0.04072   0.00000  -0.04072  -0.08485
   Z16       -0.01555  -0.00201  -0.01435   0.00000  -0.01435  -0.02990
         Item               Value     Threshold  Converged?
 Maximum Force            0.010112     0.000450     NO 
 RMS     Force            0.003492     0.000300     NO 
 Maximum Displacement     0.107692     0.001800     NO 
 RMS     Displacement     0.037951     0.001200     NO 
 Predicted change in Energy=-2.526588D-03
 GradGradGradGradGradGradGradGradGradGradGradGradGradGradGradGradGradGrad

                          Input orientation:                          
 ---------------------------------------------------------------------
 Center     Atomic      Atomic             Coordinates (Angstroms)
 Number     Number       Type             X           Y           Z
 ---------------------------------------------------------------------
      1          8           0       -1.695930    1.034625   -1.148653
      2          1           0       -2.148439    0.853619   -1.994422
      3          1           0       -2.296288    1.681193   -0.723267
      4          8           0        0.060276    2.228193    0.949411
      5          1           0        0.688621    2.895937    1.251260
      6          1           0       -0.630997    2.738037    0.508071
      7          8           0       -1.437121   -0.621030    1.705933
      8          1           0       -1.664007   -1.370637    2.275452
      9          1           0       -1.184836    0.080072    2.334003
     10          8           0        0.746770   -2.422944    0.122236
     11          1           0       -0.030885   -2.957644    0.331557
     12          1           0        1.198455   -2.925970   -0.567293
     13          8           0        1.760667    0.758587   -1.303514
     14          1           0        1.840083    1.710903   -1.097135
     15          1           0        2.667848    0.430039   -1.236938
     16         11           0        0.017862   -0.044898   -0.015821
 ---------------------------------------------------------------------
                    Distance matrix (angstroms):
                    1          2          3          4          5
     1  O    0.000000
     2  H    0.976142   0.000000
     3  H    0.979506   1.523999   0.000000
     4  O    2.985086   3.928617   2.941165   0.000000
     5  H    3.861366   4.770160   3.779423   0.965304   0.000000
     6  H    2.603926   3.480824   2.325147   0.965701   1.522712
     7  O    3.310112   4.046381   3.455345   3.306448   4.134557
     8  H    4.184591   4.838783   4.325015   4.205130   4.978703
     9  H    3.647093   4.501353   3.625715   2.842854   3.551234
    10  O    4.420037   4.857812   5.178707   4.773738   5.437699
    11  H    4.571828   4.941654   5.269109   5.223310   5.968916
    12  H    4.939814   5.246303   5.784765   5.491925   6.120593
    13  O    3.471058   3.970830   4.200805   3.182254   3.499202
    14  H    3.600472   4.177124   4.153339   2.761097   2.871434
    15  H    4.406346   4.893856   5.145084   3.848755   4.023570
    16  Na   2.320725   3.068397   2.972399   2.469902   3.271685
                    6          7          8          9         10
     6  H    0.000000
     7  O    3.656233   0.000000
     8  H    4.590419   0.968370   0.000000
     9  H    3.271933   0.974507   1.528919   0.000000
    10  O    5.355636   3.244128   3.399344   3.858511   0.000000
    11  H    5.729928   3.053878   2.994062   3.816951   0.966678
    12  H    6.048494   4.174514   4.323650   4.809770   0.965663
    13  O    3.594456   4.602821   5.391751   4.729471   3.630825
    14  H    3.120565   4.902568   5.757507   4.856177   4.446447
    15  H    4.387971   5.159070   5.860400   5.264719   3.698298
    16  Na   2.905204   2.326659   3.136272   2.642683   2.491078
                   11         12         13         14         15
    11  H    0.000000
    12  H    1.523225   0.000000
    13  O    4.437735   3.799219   0.000000
    14  H    5.228481   4.710946   0.977653   0.000000
    15  H    4.606489   3.724290   0.967138   1.531454   0.000000
    16  Na   2.933793   3.162040   2.311083   2.751830   2.956200
                   16
    16  Na   0.000000
 Stoichiometry    H10NaO5(1+)
 Framework group  C1[X(H10NaO5)]
 Deg. of freedom    42
 Full point group                 C1      NOp   1
 Largest Abelian subgroup         C1      NOp   1
 Largest concise Abelian subgroup C1      NOp   1
                         Standard orientation:                         
 ---------------------------------------------------------------------
 Center     Atomic      Atomic             Coordinates (Angstroms)
 Number     Number       Type             X           Y           Z
 ---------------------------------------------------------------------
      1          8           0        1.235148   -0.597836    1.695610
      2          1           0        1.242716   -0.487258    2.665439
      3          1           0        1.884605   -1.318649    1.561201
      4          8           0        1.862914   -0.336296   -1.210976
      5          1           0        2.390066    0.020254   -1.936783
      6          1           0        2.518957   -0.637440   -0.569494
      7          8           0       -0.845379   -2.061402   -0.422461
      8          1           0       -1.634847   -2.591019   -0.606814
      9          1           0       -0.284555   -2.199140   -1.207426
     10          8           0       -2.663334    0.594049   -0.012599
     11          1           0       -3.116345   -0.174962    0.358709
     12          1           0       -3.113361    1.347951    0.389412
     13          8           0        0.533522    2.314806   -0.057238
     14          1           0        1.425878    2.283190   -0.455368
     15          1           0        0.082446    3.011866   -0.553214
     16         11           0       -0.216230    0.130785    0.037787
 ---------------------------------------------------------------------
 Rotational constants (GHZ):           1.7654205           1.4828388           1.1239768
 Standard basis: Aug-CC-pVDZ (5D, 7F)
 There are   244 symmetry adapted cartesian basis functions of A   symmetry.
 There are   232 symmetry adapted basis functions of A   symmetry.
   232 basis functions,   406 primitive gaussians,   244 cartesian basis functions
    30 alpha electrons       30 beta electrons
       nuclear repulsion energy       304.2148235641 Hartrees.
 NAtoms=   16 NActive=   16 NUniq=   16 SFac= 1.00D+00 NAtFMM=   60 NAOKFM=F Big=F
 Integral buffers will be    131072 words long.
 Raffenetti 2 integral format.
 Two-electron integral symmetry is turned on.
 Nuclear repulsion after empirical dispersion term =      304.2059585399 Hartrees.
 One-electron integrals computed using PRISM.
 NBasis=   232 RedAO= T EigKep=  2.90D-04  NBF=   232
 NBsUse=   232 1.00D-06 EigRej= -1.00D+00 NBFU=   232
 Initial guess from the checkpoint file:  "sim010_type3_coord-5_1-4-0_10C_b1_id81750_step4840.chk"
 B after Tr=     0.000000   -0.000000   -0.000000
         Rot=    0.999892    0.003641   -0.000697   -0.014240 Ang=   1.69 deg.
 ExpMin= 6.16D-03 ExpMax= 3.17D+04 ExpMxC= 1.08D+03 IAcc=3 IRadAn=         5 AccDes= 0.00D+00
 Harris functional with IExCor=  402 and IRadAn=       5 diagonalized for initial guess.
 HarFok:  IExCor=  402 AccDes= 0.00D+00 IRadAn=         5 IDoV= 1 UseB2=F ITyADJ=14
 ICtDFT=  3500011 ScaDFX=  1.000000  1.000000  1.000000  1.000000
 FoFCou: FMM=F IPFlag=           0 FMFlag=      100000 FMFlg1=           0
         NFxFlg=           0 DoJE=T BraDBF=F KetDBF=T FulRan=T
         wScrn=  0.000000 ICntrl=       500 IOpCl=  0 I1Cent=   200000004 NGrid=           0
         NMat0=    1 NMatS0=      1 NMatT0=    0 NMatD0=    1 NMtDS0=    0 NMtDT0=    0
 Petite list used in FoFCou.
 Requested convergence on RMS density matrix=1.00D-08 within 500 cycles.
 Requested convergence on MAX density matrix=1.00D-06.
 Requested convergence on             energy=1.00D-06.
 No special actions if energy rises.
 SCF Done:  E(RB3LYP) =  -544.449836133     A.U. after    9 cycles
            NFock=  9  Conv=0.34D-08     -V/T= 2.0059
 DoSCS=F DFT=T ScalE2(SS,OS)=  1.000000  1.000000
 Range of M.O.s used for correlation:     1   232
 NBasis=   232 NAE=    30 NBE=    30 NFC=     0 NFV=     0
 NROrb=    232 NOA=    30 NOB=    30 NVA=   202 NVB=   202

 **** Warning!!: The largest alpha MO coefficient is  0.14411486D+02

 Symmetrizing basis deriv contribution to polar:
 IMax=3 JMax=2 DiffMx= 0.00D+00
 G2DrvN: will do    17 centers at a time, making    1 passes.
 Calling FoFCou, ICntrl=  3107 FMM=F I1Cent=   0 AccDes= 1.00D-11.
 End of G2Drv F.D. properties file   721 does not exist.
 End of G2Drv F.D. properties file   722 does not exist.
 End of G2Drv F.D. properties file   788 does not exist.
          IDoAtm=1111111111111111
          Differentiating once with respect to electric field.
                with respect to dipole field.
          Differentiating once with respect to nuclear coordinates.
 Keep R1 ints in memory in canonical form, NReq=408195318.
          There are    51 degrees of freedom in the 1st order CPHF.  IDoFFX=6 NUNeed=     3.
     48 vectors produced by pass  0 Test12= 1.19D-14 1.96D-09 XBig12= 2.30D+01 9.61D-01.
 AX will form    48 AO Fock derivatives at one time.
     48 vectors produced by pass  1 Test12= 1.19D-14 1.96D-09 XBig12= 2.14D+00 1.73D-01.
     48 vectors produced by pass  2 Test12= 1.19D-14 1.96D-09 XBig12= 2.55D-02 2.19D-02.
     48 vectors produced by pass  3 Test12= 1.19D-14 1.96D-09 XBig12= 6.67D-05 9.69D-04.
     48 vectors produced by pass  4 Test12= 1.19D-14 1.96D-09 XBig12= 1.03D-07 3.51D-05.
     20 vectors produced by pass  5 Test12= 1.19D-14 1.96D-09 XBig12= 7.56D-11 8.42D-07.
      3 vectors produced by pass  6 Test12= 1.19D-14 1.96D-09 XBig12= 5.43D-14 3.10D-08.
 InvSVY:  IOpt=1 It=  1 EMax= 2.66D-15
 Solved reduced A of dimension   263 with    51 vectors.
 Isotropic polarizability for W=    0.000000       47.21 Bohr**3.
 End of Minotr F.D. properties file   721 does not exist.
 End of Minotr F.D. properties file   722 does not exist.
 End of Minotr F.D. properties file   788 does not exist.
 Calling FoFJK, ICntrl=    100127 FMM=F ISym2X=0 I1Cent= 0 IOpClX= 0 NMat=1 NMatS=1 NMatT=0.
 ***** Axes restored to original set *****
 -------------------------------------------------------------------
 Center     Atomic                   Forces (Hartrees/Bohr)
 Number     Number              X              Y              Z
 -------------------------------------------------------------------
      1        8          -0.016089142    0.010655968   -0.004473424
      2        1           0.006675923   -0.000054996    0.006322396
      3        1           0.005966893   -0.010732801   -0.004090448
      4        8          -0.000444706   -0.000244870   -0.001970530
      5        1           0.000680859   -0.000651838    0.003358402
      6        1           0.000845290    0.000892391    0.000269117
      7        8           0.004556928    0.004737387    0.009031355
      8        1          -0.000564425    0.001362983   -0.002564475
      9        1          -0.004024914   -0.003695527   -0.002797334
     10        8          -0.004562471    0.003519553   -0.003019271
     11        1           0.001248991   -0.000899860    0.001531411
     12        1           0.002125028   -0.000344316    0.000161756
     13        8           0.004302081    0.010232966    0.006625648
     14        1          -0.001890377   -0.009709241   -0.004394409
     15        1          -0.000224416   -0.000839967   -0.002720154
     16       11           0.001398456   -0.004227831   -0.001270040
 -------------------------------------------------------------------
 Cartesian Forces:  Max     0.016089142 RMS     0.004998253

 GradGradGradGradGradGradGradGradGradGradGradGradGradGradGradGradGradGrad
 Berny optimization.
 Search for a local minimum.
 Step number   4 out of a maximum of  500
 All quantities printed in internal units (Hartrees-Bohrs-Radians)
 Second derivative matrix not updated -- analytic derivatives used.
 ITU=  0  0  1  0
     Eigenvalues ---   -0.00192  -0.00029  -0.00020  -0.00007   0.00043
     Eigenvalues ---    0.00050   0.00087   0.00103   0.00173   0.00232
[...]

 Dipole orientation:
     8         -1.40299675         -2.81927516          2.11130355
     1         -1.00498921         -4.05724810          3.39362212
     1         -3.08868544         -2.21978400          2.49711479
     8         -2.12699390         -3.05996367         -3.30867650
     1         -2.87949909         -4.21174009         -4.50721324
     1         -1.97386837         -3.97223021         -1.72304583
     8         -3.47036203          1.31981295         -0.64645697
     1         -4.70673068          2.60726734         -1.01433069
     1         -3.57561608          0.08463135         -2.01057164
     8          2.78319174          3.59475057          3.57461934
     1          2.07382455          4.70880591          4.83487176
     1          4.58788166          3.84424984          3.69751790
     8          2.46603720         -0.49739374         -2.86461467
     1          1.20706533         -1.55522316         -3.69147763
     1          3.90987587         -0.42389617         -3.97117550
    11          0.72175745          1.06054535          0.70283582

 Electric dipole moment (dipole orientation):
 (Debye = 10**-18 statcoulomb cm , SI units = C m)
                  (au)            (Debye)         (10**-30 SI)
   Tot        0.598479D+00      0.152118D+01      0.507412D+01
   x          0.000000D+00      0.000000D+00      0.000000D+00
   y          0.000000D+00      0.000000D+00      0.000000D+00
   z          0.598479D+00      0.152118D+01      0.507412D+01

 Dipole polarizability, Alpha (dipole orientation).
 (esu units = cm**3 , SI units = C**2 m**2 J**-1)
 Alpha(0;0):
               (au)            (10**-24 esu)      (10**-40 SI)
   iso        0.475464D+02      0.704565D+01      0.783934D+01
   aniso      0.324108D+01      0.480278D+00      0.534382D+00
   xx         0.476615D+02      0.706270D+01      0.785831D+01
   yx         0.676372D+00      0.100228D+00      0.111519D+00
   yy         0.473560D+02      0.701744D+01      0.780795D+01
   zx         0.110152D+00      0.163229D-01      0.181616D-01
   zy         0.173330D+01      0.256849D+00      0.285783D+00
   zz         0.476217D+02      0.705682D+01      0.785177D+01

 ----------------------------------------------------------------------

 Test job not archived.
 1\1\GINC-N686\Freq\RB3LYP\Aug-CC-pVDZ\H10Na1O5(1+)\HNR2\18-Jul-2022\0\
 \#N Geom=AllCheck Guess=TCheck SCRF=Check Test GenChk RB3LYP/Aug-CC-pV
 DZ Freq\\MD frame sim010_type3_coord-5_1-4-0_10C_b1_id81750_step4840\\
 1,1\O,-1.6423939156,0.7382278867,-0.8847485408\H,-2.1141169794,0.82191
 21208,-1.7240704303\H,-2.3228319937,0.5981860779,-0.209894466\O,-0.023
 4638343,2.5422067564,0.7007798583\H,-0.0310865939,3.4787952962,0.93541
 76162\H,-0.6497738935,2.4325975715,-0.0336520879\O,-0.8793372074,0.103
 1044316,1.7870209155\H,-1.0349859175,-0.1606284386,2.7015299849\H,-0.5
 999560445,1.037345266,1.8105615679\O,0.2433952543,-2.931822048,-0.8432
 637304\H,-0.3167877915,-3.6761165963,-0.5874675908\H,0.9009167251,-3.3
 129743553,-1.4399849652\O,1.8603967513,0.7283489968,-0.2803180771\H,1.
 5463019713,1.5830135693,0.0654418429\H,2.7962181346,0.8333079994,-0.48
 37638033\Na,0.1595853348,-0.7474245344,-0.122708094\\Version=ES64L-G16
 RevB.01\State=1-A\HF=-544.4673882\RMSD=1.514e-09\RMSF=1.056e-05\ZeroPo
 int=0.1220139\Thermal=0.1381753\Dipole=-0.4004092,-0.3353213,-0.292249
 3\DipoleDeriv=-0.4722659,0.0021744,-0.0344977,-0.0160266,-0.6814455,-0
 .0487813,-0.0608005,-0.0388711,-0.5774649,0.2474877,-0.0088994,-0.0264
 112,-0.0092221,0.3311744,0.0034121,-0.0194979,0.0046262,0.3050792,0.25
 4964,-0.0067914,0.0363501,-0.0049442,0.3093311,-0.0130447,0.0523776,-0
 .0081728,0.3503121,-0.6542179,-0.0703605,0.0872817,-0.0585515,-0.65845
 08,-0.0185736,0.0865011,-0.0453118,-0.5898169,0.2904254,0.0409063,-0.0
 118783,0.0298324,0.2724305,0.0214155,-0.0160724,0.038646,0.3075695,0.3
 361925,0.1152661,0.0437082,0.1128241,0.3693743,0.0824015,0.0487017,0.0
 927171,0.3217416,-0.6343059,-0.0145855,0.0484711,-0.0166489,-0.696156,
 0.1387289,0.0228773,0.0804238,-0.5659171,0.3290053,-0.0075146,-0.01547
 37,-0.0062403,0.2989969,-0.0360609,-0.0078198,-0.0236308,0.2438944,0.3
 074594,0.0873376,-0.0576476,0.0872719,0.5048436,-0.1843671,-0.0505533,
 -0.1589248,0.3238365,-0.5672991,0.0068659,-0.0273243,0.0059099,-0.5433
 499,0.006665,-0.0267133,0.005328,-0.5782816,0.3177524,-0.0074543,0.012
 0802,-0.0078472,0.2490971,-0.0149331,0.0111625,-0.0166264,0.3227138,0.
 3166899,0.0100188,0.0167825,0.0120792,0.2577554,-0.0255555,0.0172871,-
 0.0237357,0.3153293,-0.6736889,0.091134,0.0446585,0.1503844,-0.620407,
 -0.0354901,0.0692227,-0.0227052,-0.6204432,0.4828119,-0.1790117,-0.096
 8697,-0.2096541,0.3537737,0.0672793,-0.107548,0.0616223,0.3123494,0.27
 73557,-0.035855,0.003392,-0.0453797,0.2718919,-0.006665,-0.0009644,-0.
 0113283,0.3317224,0.8416335,-0.0232307,-0.0226218,-0.0237875,0.9811404
 ,0.063569,-0.0181604,0.0659436,0.7973754\Polar=47.1753271,0.2755826,49
 .2913619,-0.756296,0.5643985,46.1725266\Quadrupole=-3.5781558,10.07822
 21,-6.5000662,-1.4462582,-1.0448689,4.7722094\PG=C01 [X(H10Na1O5)]\NIm
 ag=0\\0.45389664,0.02943817,0.03234097,-0.01735852,-0.09167497,0.66980
 830,-0.16430976,0.02157699,-0.22678818,0.15083645,0.01384747,-0.010968
 15,0.03772121,-0.01783616,0.01106378,-0.17261036,0.04186024,-0.3929128
 1,0.19599958,-0.04364232,0.41897056,-0.28044422,-0.05224097,0.24859815
 ,0.01324809,0.00397868,-0.02230884,0.27057702,-0.04549585,-0.01712226,
 0.05238263,-0.00341906,-0.00083339,0.00188918,0.04931815,0.01980311,0.
 19630657,0.04855223,-0.26160240,0.03220748,0.00560530,-0.02542043,-0.2
 2970431,-0.05342630,0.28463400,-0.00084284,-0.00395149,-0.00354538,-0.
 00001526,-0.00060291,0.00084853,0.00070667,0.00126506,0.00018276,0.246
 13624,-0.00424720,-0.00263333,-0.00506408,-0.00050672,-0.00140702,0.00
 039593,0.00068090,-0.00010593,0.00016175,0.01105677,0.56167721,-0.0028
 9718,-0.00362520,-0.00051760,0.00015912,-0.00029883,0.00055147,-0.0001
 9346,-0.00029136,-0.00161690,0.25309369,0.15184025,0.34817526,-0.00074
 771,-0.00049377,-0.00083507,-0.00006452,-0.00035959,-0.00008708,0.0001
 5904,-0.00010259,-0.00009482,-0.02479615,0.02967866,-0.01391730,0.0241
 3405,0.00027137,0.00095954,0.00017273,-0.00008492,-0.00010838,-0.00009
 331,-0.00011136,-0.00023064,-0.00002839,-0.00518652,-0.48828383,-0.131
 07806,-0.00048171,0.49475990,-0.00058555,-0.00033239,-0.00037101,-0.00
 013575,-0.00030911,0.00007697,-0.00016687,-0.00008035,-0.00009296,-0.0
 2304133,-0.09147683,-0.05605781,0.02069421,0.12653645,0.06190764,-0.00
 170049,0.00431619,0.00198086,-0.00025317,0.00014019,-0.00116088,-0.001
 42177,-0.00281102,0.00035299,-0.21188690,-0.03737282,-0.23892056,0.000
 75742,0.00490915,0.00301391,0.21489070,0.00206256,0.00169130,0.0031991
 1,0.00069355,0.00185541,-0.00085633,-0.00118589,-0.00103447,0.00070351
 ,-0.00354721,-0.05214113,-0.01557236,-0.02958625,-0.00520424,-0.034696
 64,0.02912448,0.05495323,0.00116601,0.00277145,-0.00385259,-0.00077133
 ,-0.00112499,-0.00086572,0.00082885,0.00161449,0.00221852,-0.23020686,
 -0.05419603,-0.28315354,-0.00610717,0.00465547,-0.00665746,0.23654296,
 0.04493633,0.29286287,0.00035421,0.00052356,-0.00182713,0.00059531,0.0
 0001197,0.00020867,-0.00024444,-0.00039837,0.00240427,0.00219719,-0.00
 355992,0.00112042,-0.00026141,-0.00005874,0.00104021,-0.00129624,-0.00
 110071,0.00017635,0.06987456,0.00114382,0.00198020,0.00247620,0.000035
 36,-0.00013509,0.00014872,-0.00103926,-0.00204897,-0.00070850,-0.00395
 190,-0.00926607,0.00598427,-0.00026379,0.00089783,0.00199209,-0.000839
 37,-0.00093328,-0.00157691,0.15819973,0.52306206,-0.00333636,0.0016485
 2,-0.00746132,0.00013349,0.00054763,-0.00020659,0.00238011,-0.00030285
 ,0.00024844,0.00274237,0.00804876,0.00077226,0.00044540,0.00046463,-0.
 00175070,-0.00048829,-0.00158663,0.00066418,-0.08160427,-0.09976618,0.
 54795514,-0.00051643,0.00018333,-0.00109183,0.00007436,0.00007767,-0.0
 0028884,0.00102435,0.00001069,0.00032303,-0.00018756,-0.00060527,-0.00
 013073,0.00017727,-0.00012303,0.00018692,0.00000534,-0.00003303,0.0000
 2388,-0.01927132,-0.03259668,0.06781720,0.02087389,-0.00021260,0.00013
 364,-0.00067454,-0.00005618,0.00021542,0.00000941,0.00030580,-0.000098
 66,0.00033304,-0.00056896,-0.00199426,-0.00004915,-0.00025644,-0.00024
 789,0.00061664,0.00000709,0.00003739,-0.00017508,-0.02884030,-0.076976
 62,0.09242815,0.03524753,0.08616578,-0.00019242,0.00010541,-0.00018981
 ,-0.00006122,0.00012048,-0.00002138,0.00027415,-0.00005084,-0.00040360
 ,-0.00055510,-0.00096849,0.00088763,0.00009020,-0.00000123,0.00010092,
 0.00000228,-0.00008577,-0.00019319,0.08392151,0.14140801,-0.47521641,-
 0.08129818,-0.13508634,0.47622388,-0.00028039,-0.00015530,0.00117213,-
 0.00007407,0.00013515,-0.00003427,-0.00094713,-0.00084757,-0.00181637,
 -0.00479055,0.00011112,0.00032896,-0.00008914,0.00033783,-0.00132755,0
 .00200611,0.00244376,-0.00157753,-0.04625780,-0.12377570,0.00542660,-0
 .00207498,-0.00582966,-0.00194085,0.05145082,-0.00018769,-0.00209342,0
 .00085873,0.00003431,0.00008250,0.00008317,-0.00051723,0.00112218,-0.0
 0128718,0.00232716,0.00060825,-0.00516494,-0.00016496,-0.00180453,-0.0
 0127435,0.00158757,0.00224899,0.00252556,-0.12637680,-0.43138778,0.002
 10287,-0.00200374,-0.00803939,-0.00592417,0.12638991,0.43946542,0.0005
 4011,0.00127728,0.00102252,0.00025612,0.00016300,-0.00014170,-0.000877
 30,-0.00130784,-0.00004289,-0.00262979,-0.00538662,-0.00347998,-0.0006
 3473,-0.00064103,0.00320256,0.00025908,0.00231117,-0.00333305,-0.00929
 139,-0.04720528,-0.05245333,0.01320649,0.04355358,-0.00054820,-0.00141
 415,0.01049909,0.05593321,0.00020665,0.00114217,0.00004462,-0.00000312
 ,-0.00037072,0.00011890,0.00010925,-0.00049170,-0.00013678,0.00048875,
 0.00009799,-0.00009025,-0.00002559,-0.00001308,0.00000414,-0.00028943,
 -0.00024884,-0.00010405,0.00060109,0.00055496,0.00011907,-0.00015368,-
 0.00010222,-0.00010759,-0.00026636,-0.00016541,0.00022241,0.43207125,0
 .00049582,-0.00080352,-0.00014213,-0.00015964,0.00021817,-0.00011445,-
 0.00016782,0.00004860,0.00015195,0.00005817,-0.00035015,-0.00021647,0.
 00001974,0.00009145,0.00005880,0.00002804,0.00025008,0.00010640,0.0002
 8191,-0.00009915,-0.00056651,-0.00001133,-0.00018751,0.00010856,-0.000
 02519,0.00013411,0.00009156,0.08999373,0.47137693,-0.00001671,0.000025
 43,0.00075362,0.00017194,-0.00027810,-0.00023690,-0.00017659,0.0002319
 8,-0.00032477,-0.00010543,-0.00019966,0.00027359,0.00000987,0.00002525
 ,-0.00000997,-0.00001793,-0.00002721,-0.00016676,0.00017507,-0.0011368
 4,0.00016046,-0.00016368,0.00030684,0.00015800,0.00019981,0.00040072,-
 0.00036780,-0.30417043,0.04121935,0.25431692,-0.00023885,-0.00023133,0
 .00002791,0.00005986,0.00009763,-0.00004397,0.00003417,0.00021957,0.00
 002712,-0.00013217,0.00000011,0.00003180,0.00001041,0.00000045,-0.0000
 0515,0.00008283,0.00004517,0.00002286,-0.00033812,-0.00005091,0.000051
 66,0.00013804,0.00003566,0.00003078,0.00005721,0.00001495,-0.00004703,
 -0.18494515,-0.19150404,0.09434316,0.20228195,0.00004946,0.00040309,-0
 .00002516,0.00001860,-0.00012288,0.00005136,0.00006834,-0.00019763,-0.
 00002363,0.00008631,0.00012065,0.00000123,-0.00000843,-0.00002681,-0.0
 0001378,-0.00005953,-0.00009326,-0.00002982,0.00009315,0.00034688,0.00
 005651,0.00001075,-0.00005556,-0.00009790,-0.00006384,-0.00009233,0.00
 010086,-0.23359844,-0.32897987,0.10278095,0.21997810,0.31965296,0.0000
 1764,-0.00016233,-0.00023359,-0.00002066,0.00011450,0.00006154,0.00003
 354,-0.00004373,0.00017267,0.00006274,0.00004047,-0.00013556,-0.000001
 92,-0.00000197,0.00001198,0.00001470,0.00003744,0.00007145,0.00006374,
 0.00050211,-0.00025335,0.00002804,-0.00025888,-0.00006209,-0.00008657,
 -0.00015501,0.00015915,0.08450287,0.07060464,-0.05219585,-0.10265254,-
 0.09402513,0.05847405,0.00001414,-0.00026033,-0.00007359,-0.00002168,0
 .00011649,0.00001656,-0.00002446,0.00006861,0.00003602,-0.00016131,-0.
 00005732,0.00002332,0.00001537,0.00001014,0.00000431,0.00008706,0.0000
 9468,0.00003851,-0.00006669,-0.00023099,-0.00010331,0.00001095,0.00004
 659,0.00004138,0.00009075,0.00007402,-0.00006176,-0.24396943,0.1013101
 9,0.20904004,-0.01808664,0.01497156,0.01857833,0.26144545,-0.00009628,
 -0.00009080,0.00019039,0.00008264,-0.00006440,-0.00006080,-0.00002184,
 0.00009011,-0.00004052,-0.00014777,0.00005013,0.00011759,0.00000270,-0
 .00002106,-0.00002199,0.00005429,-0.00000797,-0.00003138,-0.00005867,-
 0.00016285,-0.00000058,0.00000503,0.00001360,-0.00001579,0.00007244,0.
 00005960,-0.00009611,0.14320482,-0.12371102,-0.13897986,-0.02854293,0.
 01058251,0.02416235,-0.11638993,0.11359498,-0.00001158,0.00014961,-0.0
 0016500,-0.00004827,0.00001708,0.00010095,0.00003828,-0.00007067,0.000
 03821,-0.00001037,0.00006837,-0.00004064,-0.00000299,-0.00001220,0.000
 00695,-0.00000160,-0.00001194,0.00003795,-0.00007644,0.00014264,0.0000
 0446,0.00004418,-0.00003848,-0.00001079,0.00000547,-0.00007966,0.00006
 232,0.21883658,-0.10657144,-0.19776983,0.00832730,-0.00935486,-0.00714
 441,-0.22774665,0.11638952,0.20471163,-0.00145500,-0.00026034,-0.00042
 311,-0.00006009,0.00003473,0.00038290,0.00007640,0.00015881,-0.0001975
 4,-0.00515667,0.00923473,0.00502877,-0.00251326,-0.00047402,0.00010678
 ,0.00132270,-0.00053678,0.00006496,-0.00103491,-0.00107077,0.00179262,
 -0.00032500,0.00033987,-0.00024819,0.00074634,0.00036885,-0.00123250,0
 .00069414,-0.00039178,-0.00016125,-0.00003494,0.00005986,-0.00000012,-
 0.00042322,-0.00025062,-0.00005892,0.60544526,0.00006954,0.00129882,0.
 00035404,0.00001593,-0.00022103,-0.00008728,-0.00004121,-0.00035052,-0
 .00005026,0.00770879,-0.00271800,-0.00309143,0.00071501,0.00124345,0.0
 0035460,-0.00093549,-0.00130820,-0.00114884,-0.00062075,0.00170050,-0.
 00005526,0.00016228,-0.00009568,0.00002520,-0.00034125,-0.00196811,0.0
 0097043,-0.00110178,-0.00085253,0.00000435,0.00026318,-0.00001054,-0.0
 0019173,0.00028453,0.00050227,0.00024343,-0.04564735,0.44680029,-0.000
 19162,0.00021460,0.00130068,0.00043640,-0.00000582,-0.00025230,-0.0003
 1257,-0.00002780,-0.00048234,0.00332487,-0.00323660,0.00150612,0.00080
 505,0.00032208,-0.00005968,0.00066314,-0.00091553,-0.00149735,0.001894
 12,0.00028214,-0.00015492,-0.00025459,-0.00016952,0.00023665,-0.001241
 95,0.00029300,0.00013098,-0.00035134,-0.00028705,0.00066826,0.00007626
 ,-0.00002876,-0.00016333,0.00011179,0.00042203,-0.00020482,-0.16659921
 ,0.14649903,0.09646957,0.00046735,0.00127853,0.00092234,0.00016153,-0.
 00007640,-0.00030628,-0.00021726,-0.00035457,-0.00005913,0.00027683,-0
 .00415428,-0.00386496,0.00344582,0.00088645,0.00010596,-0.00370284,0.0
 0007526,-0.00066524,-0.00005473,0.00193128,-0.00082357,0.00022500,-0.0
 0007462,0.00017472,-0.00088973,-0.00224710,0.00186585,-0.00062377,-0.0
 0027524,0.00015173,0.00015594,-0.00006785,-0.00009622,0.00017323,0.000
 25449,0.00005575,-0.08621914,0.08392818,0.04629397,0.09788827,0.000184
 39,-0.00117613,-0.00038286,0.00002198,0.00012144,0.00009318,0.00013590
 ,0.00037113,0.00007051,-0.00555700,-0.00356526,0.00095136,0.00092692,-
 0.00185066,-0.00087281,0.00100048,0.00209342,0.00184155,0.00099986,-0.
 00133973,-0.00022937,-0.00002498,-0.00005510,-0.00002676,-0.00050812,0
 .00265601,-0.00061822,0.00020714,0.00020226,0.00004006,-0.00007350,-0.
 00000734,0.00001356,-0.00007745,-0.00010097,-0.00002913,0.13109700,-0.
 38172065,-0.14976828,-0.11744821,0.38102443,0.00034323,-0.00035564,-0.
 00087110,-0.00016242,-0.00005479,0.00010424,0.00030988,0.00016897,0.00
 035624,-0.00086742,-0.00048067,-0.00522838,-0.00048654,-0.00026876,-0.
 00034664,-0.00266683,0.00210231,0.00242897,-0.00090250,-0.00077442,0.0
 0005084,0.00006567,0.00009277,-0.00016737,0.00146819,0.00057340,-0.000
 56236,0.00021163,0.00016140,-0.00008938,-0.00004464,0.00001372,0.00007
 831,-0.00005785,-0.00009767,-0.00000685,0.06119818,-0.13840610,-0.0658
 4489,-0.05821960,0.14532331,0.07142954,0.00013560,0.00009353,-0.000008
 11,-0.00008257,-0.00001867,-0.00000535,-0.00002830,-0.00002270,0.00000
 666,0.00097601,0.00017175,-0.00022170,-0.00020259,0.00004298,0.0001639
 6,-0.00015232,-0.00012482,-0.00000451,0.00030359,0.00015900,-0.0001774
 4,-0.00002210,-0.00003385,0.00005035,-0.00021417,-0.00009797,0.0001352
 8,0.00002880,0.00018404,-0.00002243,-0.00000861,-0.00001211,0.00001861
 ,0.00005607,-0.00008591,-0.00000084,-0.49463609,-0.03549853,0.11374093
 ,-0.01359376,-0.00843036,0.00057494,0.50779815,-0.00011163,0.00002909,
 -0.00005282,-0.00001339,0.00005711,0.00002081,0.00000796,0.00000974,0.
 00000062,0.00107291,-0.00185993,-0.00090241,0.00066637,-0.00003264,-0.
 00019892,-0.00013098,-0.00003247,-0.00002273,-0.00020551,-0.00009992,0
 .00028994,-0.00007555,0.00010223,-0.00000041,0.00007217,-0.00013063,-0
 .00005366,0.00041204,-0.00000030,-0.00005219,-0.00005449,-0.00003119,0
 .00002662,-0.00025118,-0.00019996,-0.00007978,-0.08268999,-0.05067951,
 0.00580412,0.03926556,0.00640757,-0.00779378,0.04353940,0.04591537,-0.
 00023130,0.00001084,-0.00011766,-0.00009711,-0.00000899,0.00009393,-0.
 00005066,0.00000384,-0.00000182,0.00015765,-0.00056179,-0.00021993,0.0
 0026370,-0.00008918,0.00019106,0.00009882,-0.00014089,0.00006924,-0.00
 002399,0.00006588,-0.00019882,0.00015467,0.00000082,0.00000501,-0.0000
 0961,0.00002268,0.00013917,0.00001923,0.00001834,-0.00023291,0.0000059
 7,-0.00000851,0.00003821,-0.00005888,-0.00012168,0.00014084,0.09852397
 ,-0.00616683,-0.02856366,0.01557006,0.00422053,-0.00309817,-0.11438908
 ,0.00264809,0.03134840,-0.00453889,-0.00095895,-0.00079509,-0.00009137
 ,0.00082445,-0.00072928,-0.00260741,0.00290254,0.00016205,-0.00281228,
 -0.00052849,0.00045008,0.00000099,0.00007500,-0.00005822,0.00155102,0.
 00182407,0.00057232,-0.00510029,0.00179520,0.00562472,0.00002186,-0.00
 000770,-0.00018183,0.00153311,0.00096413,-0.00029669,-0.00392342,0.000
 16340,0.00074283,0.00096407,-0.00152592,-0.00046219,0.00086039,0.00191
 756,0.00065009,-0.01642652,-0.00896107,0.00160475,0.00250726,-0.002454
 06,-0.00076394,-0.00035772,-0.00150369,0.00006656,0.02841919,0.0027886
 4,-0.00394903,0.00066152,-0.00040330,0.00024652,0.00030248,0.00082986,
 0.00057759,-0.00001413,-0.00006142,0.00186866,0.00139550,-0.00029187,-
 0.00014149,-0.00028139,0.00098172,-0.00237481,-0.00014547,0.00110960,-
 0.00553803,-0.00307964,-0.00022367,0.00108260,0.00049004,0.00198427,-0
 .00086088,-0.00365822,0.00047934,-0.01733753,-0.00436108,-0.00019763,-
 0.00148869,-0.00066289,0.00029039,-0.00053419,-0.00076248,-0.00997220,
 -0.01162056,0.00060236,-0.00292149,-0.00306042,-0.00020406,0.00013422,
 0.00054543,0.00010683,0.00547353,0.04258485,-0.00094198,-0.00046508,-0
 .00459023,-0.00127919,0.00143375,0.00009816,0.00132763,-0.00068937,0.0
 0232005,0.00054906,0.00101525,-0.00171598,-0.00014080,0.00003753,-0.00
 015183,0.00032731,0.00060344,0.00136648,0.00272136,-0.00183394,-0.0121
 6033,0.00137777,-0.00088925,-0.00079925,0.00084771,-0.00347391,0.00027
 941,0.00088100,-0.00462296,-0.00493666,-0.00015149,0.00060293,0.001120
 80,0.00021179,-0.00181552,0.00023903,0.00182266,0.00074665,-0.00308898
 ,-0.00110539,-0.00062664,0.00176700,0.00013872,0.00036649,0.00040712,-
 0.00658617,0.00961064,0.01984521\\-0.00000008,0.00000047,-0.00000010,0
 .00000035,0.00000035,0.00000012,0.00000024,0.00000012,-0.00000041,-0.0
 0000007,-0.00000017,0.00000099,-0.00000002,-0.00000023,0.00000050,0.00
 000010,0.00000001,0.00000035,-0.00000033,-0.00000075,-0.00000002,-0.00
 000023,-0.00000031,-0.00000026,-0.00000010,-0.00000023,0.00000011,0.00
 000146,-0.00003771,-0.00001149,0.00003009,0.00002906,-0.00001669,-0.00
 003158,0.00000927,0.00002603,0.00000046,0.00000014,0.00000055,0.000000
 02,-0.00000002,0.00000033,-0.00000029,-0.00000005,0.00000042,-0.000000
 03,0.00000006,-0.00000045\\\@


 A MAN IS NEVER SO BRILLIANT AS WHEN HE TAKES THE WORDS RIGHT OUT
 OF YOUR MOUTH. -- ARNOT SHEPPARD, JR.
 Job cpu time:       0 days  1 hours  3 minutes 43.7 seconds.
 Elapsed time:       0 days  0 hours  1 minutes 36.7 seconds.
 File lengths (MBytes):  RWF=     88 Int=      0 D2E=      0 Chk=      6 Scr=      1
 Normal termination of Gaussian 16 at Mon Jul 18 21:38:38 2022.
