 Entering Gaussian System, Link 0=g16
 Initial command:
 /share/sw/gaussian/g16_B.01_avx2-enabled/g16/l1.exe "/scratch/hnr2/2615640/Gau-33668.inp" -scrdir="/scratch/hnr2/2615640/"
 Entering Link 1 = /share/sw/gaussian/g16_B.01_avx2-enabled/g16/l1.exe PID=     33669.
  
 Copyright (c) 1988-2017, Gaussian, Inc.  All Rights Reserved.
  
 This is part of the Gaussian(R) 16 program.  It is based on
 the Gaussian(R) 09 system (copyright 2009, Gaussian, Inc.),
 the Gaussian(R) 03 system (copyright 2003, Gaussian, Inc.),
 the Gaussian(R) 98 system (copyright 1998, Gaussian, Inc.),
 the Gaussian(R) 94 system (copyright 1995, Gaussian, Inc.),
 the Gaussian 92(TM) system (copyright 1992, Gaussian, Inc.),
 the Gaussian 90(TM) system (copyright 1990, Gaussian, Inc.),
 the Gaussian 88(TM) system (copyright 1988, Gaussian, Inc.),
 the Gaussian 86(TM) system (copyright 1986, Carnegie Mellon
 University), and the Gaussian 82(TM) system (copyright 1983,
 Carnegie Mellon University). Gaussian is a federally registered
 trademark of Gaussian, Inc.
  
 This software contains proprietary and confidential information,
 including trade secrets, belonging to Gaussian, Inc.
  
 This software is provided under written license and may be
 used, copied, transmitted, or stored only in accord with that
 written license.
  
 The following legend is applicable only to US Government
 contracts under FAR:
  
                    RESTRICTED RIGHTS LEGEND
  
 Use, reproduction and disclosure by the US Government is
 subject to restrictions as set forth in subparagraphs (a)
 and (c) of the Commercial Computer Software - Restricted
 Rights clause in FAR 52.227-19.
  
 Gaussian, Inc.
 340 Quinnipiac St., Bldg. 40, Wallingford CT 06492
  
  
 ---------------------------------------------------------------
 Warning -- This program may not be used in any manner that
 competes with the business of Gaussian, Inc. or will provide
 assistance to any competitor of Gaussian, Inc.  The licensee
 of this program is prohibited from giving any competitor of
 Gaussian, Inc. access to this program.  By using this program,
 the user acknowledges that Gaussian, Inc. is engaged in the
 business of creating and licensing software in the field of
 computational chemistry and represents and warrants to the
 licensee that it is not a competitor of Gaussian, Inc. and that
 it will not use this program in any manner prohibited above.
 ---------------------------------------------------------------
  

 Cite this work as:
 Gaussian 16, Revision B.01,
 M. J. Frisch, G. W. Trucks, H. B. Schlegel, G. E. Scuseria, 
 M. A. Robb, J. R. Cheeseman, G. Scalmani, V. Barone, 
 G. A. Petersson, H. Nakatsuji, X. Li, M. Caricato, A. V. Marenich, 
 J. Bloino, B. G. Janesko, R. Gomperts, B. Mennucci, H. P. Hratchian, 
 J. V. Ortiz, A. F. Izmaylov, J. L. Sonnenberg, D. Williams-Young, 
 F. Ding, F. Lipparini, F. Egidi, J. Goings, B. Peng, A. Petrone, 
 T. Henderson, D. Ranasinghe, V. G. Zakrzewski, J. Gao, N. Rega, 
 G. Zheng, W. Liang, M. Hada, M. Ehara, K. Toyota, R. Fukuda, 
 J. Hasegawa, M. Ishida, T. Nakajima, Y. Honda, O. Kitao, H. Nakai, 
 T. Vreven, K. Throssell, J. A. Montgomery, Jr., J. E. Peralta, 
 F. Ogliaro, M. J. Bearpark, J. J. Heyd, E. N. Brothers, K. N. Kudin, 
 V. N. Staroverov, T. A. Keith, R. Kobayashi, J. Normand, 
 K. Raghavachari, A. P. Rendell, J. C. Burant, S. S. Iyengar, 
 J. Tomasi, M. Cossi, J. M. Millam, M. Klene, C. Adamo, R. Cammi, 
 J. W. Ochterski, R. L. Martin, K. Morokuma, O. Farkas, 
 J. B. Foresman, and D. J. Fox, Gaussian, Inc., Wallingford CT, 2016.
 
 ******************************************
 Gaussian 16:  ES64L-G16RevB.01 20-Dec-2017
                18-Jul-2022 
 ******************************************
 %nprocshared=40
 Will use up to   40 processors via shared memory.
 %mem=60GB
 %oldchk=sim003_type3_coord-5_2-3-0_10C_b1_id81786_step1560.chk
 %chk=sim003_type3_coord-5_2-3-0_10C_b1_id81786_step1560_2.chk
 Copying data from "sim003_type3_coord-5_2-3-0_10C_b1_id81786_step1560.chk" to current chk file "sim003_type3_coord-5_2-3-0_10C_b1_id81786_step1560_2.chk"
 IOpt=  2 FromEx=T IUOpen= 4 IOptOp= 5 NList=   0 IFRang= 0 IUIn= 4 IUOut= 2.
 ----------------------------------------------------------------------
 # geom=check scrf=(solvent=water,iefpcm,externaliteration,1stvac,read)
  rb3lyp/aug-cc-pvdz empiricaldispersion=gd3 scf=(maxcycle=500) int(Acc
 2E=11,grid=ultrafine)
 ----------------------------------------------------------------------
 1/28=-2,29=2,30=1,38=1,70=10002203,72=1,125=1000,172=1/1,24;
 2/12=2,40=1/2;
 3/5=16,7=10,11=2,14=-4,25=1,27=11,30=1,70=1000100,72=1,74=-5,75=-5,116=1,124=31/1,2,3;
 4/9=2/1;
 5/5=2,7=500,17=20,38=5,53=1,87=11/2;
 6/7=2,8=2,9=2,10=2,28=1,87=11/1;
 1/28=-2,70=10002205,72=1/24(1);
 99/5=1,9=1/99;
 3/5=16,7=10,11=2,14=-2,25=1,27=11,30=1,70=100,72=1,74=-5,75=-5,116=1,124=31/1,2,3;
 4/5=5,9=2,16=3,69=1/1;
 5/5=2,7=500,17=20,38=5,53=1,87=11/2;
 6/7=2,8=2,9=2,10=2,28=1,87=11/1;
 1/28=-2,70=10002205,72=1/24(-4);
 99/5=1,9=1/99;
 -----------------------------------------------------------
 MD frame sim003_type3_coord-5_2-3-0_10C_b1_id81786_step1560
 -----------------------------------------------------------
 Structure from the checkpoint file:  "sim003_type3_coord-5_2-3-0_10C_b1_id81786_step1560_2.chk"
 Charge =  1 Multiplicity = 1
 No Z-Matrix found in chk file; cartesian coordinates used.
  O                                                 1.750625495903      0.920790414262     -1.494594890703
  H                                                 1.907751405892      1.153059135124     -2.417270930323
  H                                                 2.540037159323      1.194896681243     -1.008492593114
  O                                                -1.137538913644      1.554841106312      0.745289862686
  H                                                -1.237938140667      2.447385075105      0.390520333805
  H                                                -1.776819353929      1.497140439548      1.466788025096
  O                                                 2.290659835128      0.570094568473      1.332187190447
  O                                                -0.278008118152     -2.039987627861      1.115765568559
  H                                                -0.877434022771     -2.528158597367      0.535273891585
  H                                                -0.152581311956     -2.589888423112      1.897972010264
  H                                                 2.985997291462     -0.003511078461      1.680316169338
  H                                                 2.233695817327      1.299607345523      1.963355682063
  O                                                -1.195112947899     -1.265265255868     -1.523222675238
  H                                                -2.086954730024     -0.929138431642     -1.682734255590
  H                                                -0.960433664311     -1.736147859796     -2.333723981681
  Na                                                0.331024198318     -0.103897491484      0.012600592804
 Recover connectivity data from disk.
 SC-PCM: Self-consistent PCM reaction field calculation.
 Using the following non-standard input for PCM:
 dis
 cav
 rep
 --- end of non-standard input.
 ------------------------------------------------------------------------------
 Polarizable Continuum Model (PCM)
 =================================
 Model                : PCM.
 Atomic radii         : UFF (Universal Force Field).
 Polarization charges : Total charges.
 Charge compensation  : None.
 Solution method      : On-the-fly selection.
 Cavity type          : Scaled VdW (van der Waals Surface) (Alpha=1.100).
 Cavity algorithm     : GePol (No added spheres)
                        Default sphere list used, NSphG=   16.
                        Lebedev-Laikov grids with approx.  5.0 points / Ang**2.
                        Smoothing algorithm: York/Karplus (Gamma=1.0000).
                        Polarization charges: spherical gaussians, with
                                              point-specific exponents (IZeta= 3).
                        Self-potential: point-specific (ISelfS= 7).
                        Self-field    : sphere-specific E.n sum rule (ISelfD= 2).
 Solvent              : Water, Eps=  78.355300 Eps(inf)=   1.777849
 ------------------------------------------------------------------------------
 Spheres list:
 ISph  on   Nord     Re0    Alpha      Xe            Ye            Ze
    1   O      1    1.7500  1.100      1.750625      0.920790     -1.494595
    2   H      2    1.4430  1.100      1.907751      1.153059     -2.417271
    3   H      3    1.4430  1.100      2.540037      1.194897     -1.008493
    4   O      4    1.7500  1.100     -1.137539      1.554841      0.745290
    5   H      5    1.4430  1.100     -1.237938      2.447385      0.390520
    6   H      6    1.4430  1.100     -1.776819      1.497140      1.466788
    7   O      7    1.7500  1.100      2.290660      0.570095      1.332187
    8   O      8    1.7500  1.100     -0.278008     -2.039988      1.115766
    9   H      9    1.4430  1.100     -0.877434     -2.528159      0.535274
   10   H     10    1.4430  1.100     -0.152581     -2.589888      1.897972
   11   H     11    1.4430  1.100      2.985997     -0.003511      1.680316
   12   H     12    1.4430  1.100      2.233696      1.299607      1.963356
   13   O     13    1.7500  1.100     -1.195113     -1.265265     -1.523223
   14   H     14    1.4430  1.100     -2.086955     -0.929138     -1.682734
   15   H     15    1.4430  1.100     -0.960434     -1.736148     -2.333724
   16  Na     16    1.4915  1.100      0.331024     -0.103897      0.012601
 ------------------------------------------------------------------------------
 SC-PCM: Now performing the calculation in vacuo, IExtIt=   0.
                          Input orientation:                          
 ---------------------------------------------------------------------
 Center     Atomic      Atomic             Coordinates (Angstroms)
 Number     Number       Type             X           Y           Z
 ---------------------------------------------------------------------
      1          8           0        1.750625    0.920790   -1.494595
      2          1           0        1.907751    1.153059   -2.417271
      3          1           0        2.540037    1.194897   -1.008493
      4          8           0       -1.137539    1.554841    0.745290
      5          1           0       -1.237938    2.447385    0.390520
      6          1           0       -1.776819    1.497140    1.466788
      7          8           0        2.290660    0.570095    1.332187
      8          8           0       -0.278008   -2.039988    1.115766
      9          1           0       -0.877434   -2.528159    0.535274
     10          1           0       -0.152581   -2.589888    1.897972
     11          1           0        2.985997   -0.003511    1.680316
     12          1           0        2.233696    1.299607    1.963356
     13          8           0       -1.195113   -1.265265   -1.523223
     14          1           0       -2.086955   -0.929138   -1.682734
     15          1           0       -0.960434   -1.736148   -2.333724
     16         11           0        0.331024   -0.103897    0.012601
 ---------------------------------------------------------------------
                    Distance matrix (angstroms):
                    1          2          3          4          5
     1  O    0.000000
     2  H    0.964349   0.000000
     3  H    0.966747   1.544730   0.000000
     4  O    3.709528   4.408743   4.090217   0.000000
     5  H    3.849112   4.410707   4.218893   0.965700   0.000000
     6  H    4.641641   5.364734   4.985340   0.965696   1.533529
     7  O    2.899193   3.813778   2.435436   3.614792   4.106332
     8  O    4.437966   5.239794   4.787309   3.714679   4.645854
     9  H    4.787725   5.479612   5.284266   4.096663   4.990686
    10  H    5.239902   6.072557   5.479264   4.413343   5.368849
    11  H    3.529949   4.392094   2.977374   4.506250   5.050950
    12  H    3.512020   4.395180   2.989430   3.593613   3.980383
    13  O    3.668383   4.034276   4.502076   3.619733   4.177083
    14  H    4.264347   4.564293   5.135677   3.600951   4.052175
    15  H    3.887583   4.071975   4.754004   4.510244   5.000046
    16  Na   2.310171   3.157576   2.758484   2.333436   3.018859
                    6          7          8          9         10
     6  H    0.000000
     7  O    4.173957   0.000000
     8  O    3.857580   3.668436   0.000000
     9  H    4.228433   4.502340   0.966743   0.000000
    10  H    4.419035   4.034233   0.964349   1.544723   0.000000
    11  H    4.998197   0.966287   3.888404   4.755110   4.072763
    12  H    4.045965   0.966337   4.263796   5.135206   4.563636
    13  O    4.112108   4.865442   2.899230   2.435822   3.813931
    14  H    3.987794   5.522767   3.512531   2.989877   4.395606
    15  H    5.056138   5.415466   3.529448   2.977469   4.391896
    16  Na   3.020097   2.456776   2.310052   2.758732   3.157317
                   11         12         13         14         15
    11  H    0.000000
    12  H    1.531074   0.000000
    13  O    5.416306   5.521914   0.000000
    14  H    6.156439   6.076948   0.966337   0.000000
    15  H    5.889725   6.154930   0.966290   1.531046   0.000000
    16  Na   3.136915   3.065197   2.456954   3.066236   3.136454
                   16
    16  Na   0.000000
 Stoichiometry    H10NaO5(1+)
 Framework group  C1[X(H10NaO5)]
 Deg. of freedom    42
 Full point group                 C1      NOp   1
 Largest Abelian subgroup         C1      NOp   1
 Largest concise Abelian subgroup C1      NOp   1
                         Standard orientation:                         
 ---------------------------------------------------------------------
 Center     Atomic      Atomic             Coordinates (Angstroms)
 Number     Number       Type             X           Y           Z
 ---------------------------------------------------------------------
      1          8           0       -1.420422   -1.701403   -0.714888
      2          1           0       -1.501745   -2.635267   -0.941280
      3          1           0       -2.291144   -1.309590   -0.866301
      4          8           0       -0.007588   -0.005959    2.266717
      5          1           0       -0.399138   -0.668815    2.849716
      6          1           0        0.380516    0.651709    2.857831
      7          8           0       -2.178754    1.080357   -0.411468
      8          8           0        1.424324    1.704890   -0.703378
      9          1           0        2.295749    1.314093   -0.853339
     10          1           0        1.506270    2.639912   -0.924709
     11          1           0       -2.438326    1.650877   -1.146887
     12          1           0       -2.698185    1.395130    0.340142
     13          8           0        2.181674   -1.078158   -0.409098
     14          1           0        2.699601   -1.396503    0.342045
     15          1           0        2.442702   -1.645247   -1.146656
     16         11           0        0.000894    0.000536   -0.066695
 ---------------------------------------------------------------------
 Rotational constants (GHZ):           1.7787805           1.3118315           1.2126301
 Standard basis: Aug-CC-pVDZ (5D, 7F)
 There are   244 symmetry adapted cartesian basis functions of A   symmetry.
 There are   232 symmetry adapted basis functions of A   symmetry.
   232 basis functions,   406 primitive gaussians,   244 cartesian basis functions
    30 alpha electrons       30 beta electrons
       nuclear repulsion energy       302.5423181660 Hartrees.
 NAtoms=   16 NActive=   16 NUniq=   16 SFac= 1.00D+00 NAtFMM=   60 NAOKFM=F Big=F
 Integral buffers will be    131072 words long.
 Raffenetti 2 integral format.
 Two-electron integral symmetry is turned on.
 Nuclear repulsion after empirical dispersion term =      302.5340718037 Hartrees.
 One-electron integrals computed using PRISM.
 NBasis=   232 RedAO= T EigKep=  1.98D-04  NBF=   232
 NBsUse=   232 1.00D-06 EigRej= -1.00D+00 NBFU=   232
 SCF N**3 symmetry information disabled.
 ExpMin= 6.16D-03 ExpMax= 3.17D+04 ExpMxC= 1.08D+03 IAcc=3 IRadAn=         5 AccDes= 0.00D+00
 Harris functional with IExCor=  402 and IRadAn=       5 diagonalized for initial guess.
 HarFok:  IExCor=  402 AccDes= 0.00D+00 IRadAn=         5 IDoV= 1 UseB2=F ITyADJ=14
 ICtDFT=  3500011 ScaDFX=  1.000000  1.000000  1.000000  1.000000
 FoFCou: FMM=F IPFlag=           0 FMFlag=      100000 FMFlg1=           0
         NFxFlg=           0 DoJE=T BraDBF=F KetDBF=T FulRan=T
         wScrn=  0.000000 ICntrl=       500 IOpCl=  0 I1Cent=   200000004 NGrid=           0
         NMat0=    1 NMatS0=      1 NMatT0=    0 NMatD0=    1 NMtDS0=    0 NMtDT0=    0
 Petite list used in FoFCou.
 Requested convergence on RMS density matrix=1.00D-08 within 500 cycles.
 Requested convergence on MAX density matrix=1.00D-06.
 Requested convergence on             energy=1.00D-06.
 No special actions if energy rises.
 SCF Done:  E(RB3LYP) =  -544.463880555     A.U. after   10 cycles
            NFock= 10  Conv=0.25D-08     -V/T= 2.0058

 **********************************************************************

            Population analysis using the SCF Density.

 **********************************************************************

 Orbital symmetries:
       Occupied  (A) (A) (A) (A) (A) (A) (A) (A) (A) (A) (A) (A)
                 (A) (A) (A) (A) (A) (A) (A) (A) (A) (A) (A) (A)
                 (A) (A) (A) (A) (A) (A)
       Virtual   (A) (A) (A) (A) (A) (A) (A) (A) (A) (A) (A) (A)
                 (A) (A) (A) (A) (A) (A) (A) (A) (A) (A) (A) (A)
                 (A) (A) (A) (A) (A) (A) (A) (A) (A) (A) (A) (A)
                 (A) (A) (A) (A) (A) (A) (A) (A) (A) (A) (A) (A)
                 (A) (A) (A) (A) (A) (A) (A) (A) (A) (A) (A) (A)
                 (A) (A) (A) (A) (A) (A) (A) (A) (A) (A) (A) (A)
                 (A) (A) (A) (A) (A) (A) (A) (A) (A) (A) (A) (A)
                 (A) (A) (A) (A) (A) (A) (A) (A) (A) (A) (A) (A)
                 (A) (A) (A) (A) (A) (A) (A) (A) (A) (A) (A) (A)
                 (A) (A) (A) (A) (A) (A) (A) (A) (A) (A) (A) (A)
                 (A) (A) (A) (A) (A) (A) (A) (A) (A) (A) (A) (A)
                 (A) (A) (A) (A) (A) (A) (A) (A) (A) (A) (A) (A)
                 (A) (A) (A) (A) (A) (A) (A) (A) (A) (A) (A) (A)
                 (A) (A) (A) (A) (A) (A) (A) (A) (A) (A) (A) (A)
                 (A) (A) (A) (A) (A) (A) (A) (A) (A) (A) (A) (A)
                 (A) (A) (A) (A) (A) (A) (A) (A) (A) (A) (A) (A)
                 (A) (A) (A) (A) (A) (A) (A) (A) (A) (A)
 The electronic state is 1-A.
 Alpha  occ. eigenvalues --  -38.57484 -19.31346 -19.31345 -19.31206 -19.30105
 Alpha  occ. eigenvalues --  -19.30104  -2.31040  -1.24391  -1.24365  -1.24300
 Alpha  occ. eigenvalues --   -1.17567  -1.17454  -1.17339  -1.16312  -1.16196
 Alpha  occ. eigenvalues --   -0.69034  -0.69011  -0.68995  -0.68385  -0.68356
 Alpha  occ. eigenvalues --   -0.57241  -0.56236  -0.56148  -0.55125  -0.55063
 Alpha  occ. eigenvalues --   -0.48127  -0.47955  -0.47640  -0.46824  -0.46777
 Alpha virt. eigenvalues --   -0.16262  -0.13837  -0.12982  -0.12434  -0.10615
 Alpha virt. eigenvalues --   -0.07973  -0.07969  -0.07730  -0.07159  -0.06198
 Alpha virt. eigenvalues --   -0.05638  -0.05204  -0.05033  -0.04863  -0.04838
 Alpha virt. eigenvalues --   -0.04117  -0.03340  -0.02829  -0.00341   0.00520
 Alpha virt. eigenvalues --    0.00677   0.00995   0.01968   0.02039   0.02111
 Alpha virt. eigenvalues --    0.02237   0.02622   0.03450   0.03643   0.04038
 Alpha virt. eigenvalues --    0.04372   0.04865   0.05020   0.05379   0.05406
 Alpha virt. eigenvalues --    0.06022   0.06747   0.06878   0.06998   0.08933
 Alpha virt. eigenvalues --    0.09054   0.10568   0.11017   0.11826   0.13089
 Alpha virt. eigenvalues --    0.13119   0.14627   0.16000   0.16901   0.17128
 Alpha virt. eigenvalues --    0.17759   0.19761   0.20314   0.22114   0.22496
 Alpha virt. eigenvalues --    0.22697   0.22803   0.23971   0.24726   0.25391
 Alpha virt. eigenvalues --    0.26523   0.26660   0.28643   0.29862   0.30873
 Alpha virt. eigenvalues --    0.30892   0.32470   0.32653   0.33093   0.34158
 Alpha virt. eigenvalues --    0.34555   0.35171   0.36056   0.36173   0.37551
 Alpha virt. eigenvalues --    0.37797   0.38483   0.39594   0.39814   0.40906
 Alpha virt. eigenvalues --    0.40920   0.42743   0.43027   0.43336   0.45394
 Alpha virt. eigenvalues --    0.46021   0.46659   0.46889   0.49665   0.52412
 Alpha virt. eigenvalues --    0.52950   0.56954   0.59421   0.61244   0.61472
 Alpha virt. eigenvalues --    0.63236   0.68619   0.71539   0.71893   0.73402
 Alpha virt. eigenvalues --    0.76076   0.79554   0.80051   0.81541   0.82627
 Alpha virt. eigenvalues --    0.82689   0.84096   0.86338   0.88265   0.90312
 Alpha virt. eigenvalues --    0.90617   0.91730   0.92248   0.94371   0.94911
 Alpha virt. eigenvalues --    0.95044   1.01458   1.03475   1.05032   1.05525
 Alpha virt. eigenvalues --    1.08239   1.10363   1.12331   1.13334   1.15834
 Alpha virt. eigenvalues --    1.16674   1.19991   1.22400   1.24499   1.28893
 Alpha virt. eigenvalues --    1.30907   1.33534   1.39050   1.48209   1.51705
 Alpha virt. eigenvalues --    1.56223   1.61734   1.62116   1.62599   1.65255
 Alpha virt. eigenvalues --    1.66488   1.66837   1.70104   1.74351   1.75831
 Alpha virt. eigenvalues --    1.76820   1.77915   1.78149   1.78159   1.79666
 Alpha virt. eigenvalues --    1.80222   1.98207   2.00657   2.01939   2.02107
 Alpha virt. eigenvalues --    2.02967   2.03212   2.04188   2.04542   2.06094
 Alpha virt. eigenvalues --    2.08003   2.14192   2.15706   2.18688   2.21768
 Alpha virt. eigenvalues --    2.22577   2.32737   2.35301   2.38224   2.38441
 Alpha virt. eigenvalues --    2.43518   2.47151   2.59466   2.63550   2.64056
 Alpha virt. eigenvalues --    2.67016   2.76169   3.16249   3.17234   3.17794
 Alpha virt. eigenvalues --    3.17864   3.18380   3.19383   3.20157   3.23062
 Alpha virt. eigenvalues --    3.23226   3.25065   3.26244   3.27035   3.28801
 Alpha virt. eigenvalues --    3.29505   3.33245   3.52928   3.53251   3.55457
 Alpha virt. eigenvalues --    3.58859   3.59809   3.75924   3.76610   3.77658
 Alpha virt. eigenvalues --    3.79128   3.79687
          Condensed to atoms (all electrons):
               1          2          3          4          5          6
     1  O    7.709110   0.317212   0.371516  -0.009455   0.003989   0.000180
     2  H    0.317212   0.593508  -0.115644   0.002156  -0.000212   0.000250
     3  H    0.371516  -0.115644   0.606029  -0.001490  -0.000192  -0.000508
     4  O   -0.009455   0.002156  -0.001490   7.866049   0.346952   0.346609
     5  H    0.003989  -0.000212  -0.000192   0.346952   0.558474  -0.099404
     6  H    0.000180   0.000250  -0.000508   0.346609  -0.099404   0.558495
     7  O   -0.027172  -0.000044   0.013259  -0.022607  -0.000425  -0.000027
     8  O    0.001809   0.000325  -0.000880  -0.009435   0.000176   0.004009
     9  H   -0.000894   0.000041  -0.000567  -0.001496  -0.000510  -0.000196
    10  H    0.000326   0.000195   0.000042   0.002142   0.000248  -0.000208
    11  H    0.002792   0.000305   0.001293  -0.000371   0.000082   0.000159
    12  H    0.002397   0.000663   0.000361   0.010330   0.000566   0.000220
    13  O   -0.016480   0.001703  -0.000761  -0.022531  -0.000019  -0.000462
    14  H   -0.001089   0.000552  -0.000518   0.010230   0.000224   0.000546
    15  H    0.002028   0.000188  -0.000283  -0.000364   0.000155   0.000084
    16  Na  -0.048386   0.016542  -0.037364  -0.105095  -0.008244  -0.007949
               7          8          9         10         11         12
     1  O   -0.027172   0.001809  -0.000894   0.000326   0.002792   0.002397
     2  H   -0.000044   0.000325   0.000041   0.000195   0.000305   0.000663
     3  H    0.013259  -0.000880  -0.000567   0.000042   0.001293   0.000361
     4  O   -0.022607  -0.009435  -0.001496   0.002142  -0.000371   0.010330
     5  H   -0.000425   0.000176  -0.000510   0.000248   0.000082   0.000566
     6  H   -0.000027   0.004009  -0.000196  -0.000208   0.000159   0.000220
     7  O    7.923492  -0.016579  -0.000762   0.001705   0.315858   0.318680
     8  O   -0.016579   7.709682   0.371411   0.317211   0.002044  -0.001107
     9  H   -0.000762   0.371411   0.606066  -0.115614  -0.000280  -0.000523
    10  H    0.001705   0.317211  -0.115614   0.593463   0.000189   0.000555
    11  H    0.315858   0.002044  -0.000280   0.000189   0.567031  -0.096465
    12  H    0.318680  -0.001107  -0.000523   0.000555  -0.096465   0.571486
    13  O   -0.003018  -0.027334   0.013286  -0.000048  -0.000505  -0.000251
    14  H   -0.000249   0.002340   0.000358   0.000663  -0.000084   0.000125
    15  H   -0.000507   0.002824   0.001294   0.000307  -0.000067  -0.000085
    16  Na  -0.092660  -0.048681  -0.037317   0.016604   0.001821  -0.008944
              13         14         15         16
     1  O   -0.016480  -0.001089   0.002028  -0.048386
     2  H    0.001703   0.000552   0.000188   0.016542
     3  H   -0.000761  -0.000518  -0.000283  -0.037364
     4  O   -0.022531   0.010230  -0.000364  -0.105095
     5  H   -0.000019   0.000224   0.000155  -0.008244
     6  H   -0.000462   0.000546   0.000084  -0.007949
     7  O   -0.003018  -0.000249  -0.000507  -0.092660
     8  O   -0.027334   0.002340   0.002824  -0.048681
     9  H    0.013286   0.000358   0.001294  -0.037317
    10  H   -0.000048   0.000663   0.000307   0.016604
    11  H   -0.000505  -0.000084  -0.000067   0.001821
    12  H   -0.000251   0.000125  -0.000085  -0.008944
    13  O    7.922881   0.318510   0.316006  -0.092441
    14  H    0.318510   0.571337  -0.096420  -0.008648
    15  H    0.316006  -0.096420   0.567094   0.001723
    16  Na  -0.092441  -0.008648   0.001723  10.522805
 Mulliken charges:
               1
     1  O   -0.307884
     2  H    0.182260
     3  H    0.165705
     4  O   -0.411624
     5  H    0.198139
     6  H    0.198202
     7  O   -0.408944
     8  O   -0.307814
     9  H    0.165702
    10  H    0.182221
    11  H    0.206199
    12  H    0.201993
    13  O   -0.408536
    14  H    0.202124
    15  H    0.206022
    16  Na   0.936235
 Sum of Mulliken charges =   1.00000
 Mulliken charges with hydrogens summed into heavy atoms:
               1
     1  O    0.040082
     4  O   -0.015283
     7  O   -0.000752
     8  O    0.040108
    13  O   -0.000390
    16  Na   0.936235
 Electronic spatial extent (au):  <R**2>=           1165.7180
 Charge=              1.0000 electrons
 Dipole moment (field-independent basis, Debye):
    X=             -0.0005    Y=             -0.0035    Z=              0.6138  Tot=              0.6138
 Quadrupole moment (field-independent basis, Debye-Ang):
   XX=             -9.4380   YY=            -15.4947   ZZ=            -19.8016
   XY=             -3.1791   XZ=             -0.0073   YZ=             -0.0007
 Traceless Quadrupole moment (field-independent basis, Debye-Ang):
   XX=              5.4735   YY=             -0.5832   ZZ=             -4.8902
   XY=             -3.1791   XZ=             -0.0073   YZ=             -0.0007
 Octapole moment (field-independent basis, Debye-Ang**2):
  XXX=              0.1665  YYY=              0.1346  ZZZ=             39.0191  XYY=              0.0449
  XXY=              0.0283  XXZ=            -15.1097  XZZ=             -0.1676  YZZ=             -0.1899
  YYZ=            -18.1485  XYZ=             -1.4329
 Hexadecapole moment (field-independent basis, Debye-Ang**3):
 XXXX=           -390.3486 YYYY=           -222.6874 ZZZZ=           -165.4669 XXXY=            -63.6413
 XXXZ=              0.0010 YYYX=             26.5365 YYYZ=              0.0937 ZZZX=             -0.2136
 ZZZY=             -0.0541 XXYY=            -49.5674 XXZZ=           -113.9676 YYZZ=            -75.3259
 XXYZ=              0.0131 YYXZ=              0.1345 ZZXY=             -1.3298
 N-N= 3.025340718037D+02 E-N=-1.888738186965D+03  KE= 5.413008904153D+02
 SC-PCM: Now building the cavity and doing the perturbative PCM calculation.
 SC-PCM: Using the SCF Density.
 Inv3:  Mode=1 IEnd=     8266800.
 Iteration    1 A*A^-1 deviation from unit magnitude is 3.55D-15 for    916.
 Iteration    1 A*A^-1 deviation from orthogonality  is 2.21D-15 for   1028    803.
 Iteration    1 A^-1*A deviation from unit magnitude is 4.00D-15 for    916.
 Iteration    1 A^-1*A deviation from orthogonality  is 2.53D-15 for   1424    916.
 With in-vacuo wavefunction:
 Error on total polarization charges =  0.00995
 SC-PCM: The total energy in vacuo is      -544.463880555 a.u.
 SC-PCM: The total energy including the PCM contribution is      -544.540028239 a.u.
 SC-PCM: Iterating to achieve self-consistent PCM reaction field, IExtIt=   1.
 Standard basis: Aug-CC-pVDZ (5D, 7F)
 There are   244 symmetry adapted cartesian basis functions of A   symmetry.
 There are   232 symmetry adapted basis functions of A   symmetry.
   232 basis functions,   406 primitive gaussians,   244 cartesian basis functions
    30 alpha electrons       30 beta electrons
       nuclear repulsion energy       302.5423181660 Hartrees.
 NAtoms=   16 NActive=   16 NUniq=   16 SFac= 1.00D+00 NAtFMM=   60 NAOKFM=F Big=F
 Integral buffers will be    131072 words long.
 Raffenetti 2 integral format.
 Two-electron integral symmetry is turned on.
 Nuclei-solvent charges/DBFs interaction =        -4.1398689200 a.u.
 Nuclear repulsion after self-consistent solvent charges =      298.4024492460 Hartrees.
 Nuclear repulsion after empirical dispersion term =      298.3942028837 Hartrees.
 One-electron integrals computed using PRISM.
 NBasis=   232 RedAO= T EigKep=  1.98D-04  NBF=   232
 NBsUse=   232 1.00D-06 EigRej= -1.00D+00 NBFU=   232
 Initial guess from the checkpoint file:  "sim003_type3_coord-5_2-3-0_10C_b1_id81786_step1560_2.chk"
 SCF N**3 symmetry information disabled.
 B after Tr=    -0.000000    0.000000    0.000000
         Rot=    1.000000   -0.000000    0.000000   -0.000000 Ang=   0.00 deg.
 ExpMin= 6.16D-03 ExpMax= 3.17D+04 ExpMxC= 1.08D+03 IAcc=3 IRadAn=         5 AccDes= 0.00D+00
 Harris functional with IExCor=  402 and IRadAn=       5 diagonalized for initial guess.
 HarFok:  IExCor=  402 AccDes= 0.00D+00 IRadAn=         5 IDoV= 1 UseB2=F ITyADJ=14
 ICtDFT=  3500011 ScaDFX=  1.000000  1.000000  1.000000  1.000000
 FoFCou: FMM=F IPFlag=           0 FMFlag=      100000 FMFlg1=           0
         NFxFlg=           0 DoJE=T BraDBF=F KetDBF=T FulRan=T
         wScrn=  0.000000 ICntrl=       500 IOpCl=  0 I1Cent=   200000004 NGrid=           0
         NMat0=    1 NMatS0=      1 NMatT0=    0 NMatD0=    1 NMtDS0=    0 NMtDT0=    0
 Petite list used in FoFCou.
 Requested convergence on RMS density matrix=1.00D-08 within 500 cycles.
 Requested convergence on MAX density matrix=1.00D-06.
 Requested convergence on             energy=1.00D-06.
 No special actions if energy rises.
 SCF Done:  E(RB3LYP) =  -544.540026732     A.U. after    9 cycles
            NFock=  9  Conv=0.85D-09     -V/T= 2.0060

 **********************************************************************

            Population analysis using the SCF Density.

 **********************************************************************

 Orbital symmetries:
       Occupied  (A) (A) (A) (A) (A) (A) (A) (A) (A) (A) (A) (A)
                 (A) (A) (A) (A) (A) (A) (A) (A) (A) (A) (A) (A)
                 (A) (A) (A) (A) (A) (A)
       Virtual   (A) (A) (A) (A) (A) (A) (A) (A) (A) (A) (A) (A)
                 (A) (A) (A) (A) (A) (A) (A) (A) (A) (A) (A) (A)
                 (A) (A) (A) (A) (A) (A) (A) (A) (A) (A) (A) (A)
                 (A) (A) (A) (A) (A) (A) (A) (A) (A) (A) (A) (A)
                 (A) (A) (A) (A) (A) (A) (A) (A) (A) (A) (A) (A)
                 (A) (A) (A) (A) (A) (A) (A) (A) (A) (A) (A) (A)
                 (A) (A) (A) (A) (A) (A) (A) (A) (A) (A) (A) (A)
                 (A) (A) (A) (A) (A) (A) (A) (A) (A) (A) (A) (A)
                 (A) (A) (A) (A) (A) (A) (A) (A) (A) (A) (A) (A)
                 (A) (A) (A) (A) (A) (A) (A) (A) (A) (A) (A) (A)
                 (A) (A) (A) (A) (A) (A) (A) (A) (A) (A) (A) (A)
                 (A) (A) (A) (A) (A) (A) (A) (A) (A) (A) (A) (A)
                 (A) (A) (A) (A) (A) (A) (A) (A) (A) (A) (A) (A)
                 (A) (A) (A) (A) (A) (A) (A) (A) (A) (A) (A) (A)
                 (A) (A) (A) (A) (A) (A) (A) (A) (A) (A) (A) (A)
                 (A) (A) (A) (A) (A) (A) (A) (A) (A) (A) (A) (A)
                 (A) (A) (A) (A) (A) (A) (A) (A) (A) (A)
 The electronic state is 1-A.
 Alpha  occ. eigenvalues --  -38.43427 -19.17707 -19.17706 -19.17674 -19.17132
 Alpha  occ. eigenvalues --  -19.17131  -2.16967  -1.10347  -1.10285  -1.10238
 Alpha  occ. eigenvalues --   -1.03961  -1.03810  -1.03772  -1.03274  -1.03166
 Alpha  occ. eigenvalues --   -0.55430  -0.55363  -0.55333  -0.55289  -0.55286
 Alpha  occ. eigenvalues --   -0.43714  -0.42605  -0.42548  -0.41975  -0.41786
 Alpha  occ. eigenvalues --   -0.34614  -0.34402  -0.34164  -0.33960  -0.33917
 Alpha virt. eigenvalues --   -0.03795  -0.01643  -0.01016  -0.00978   0.01203
 Alpha virt. eigenvalues --    0.01764   0.01873   0.01886   0.02064   0.03382
 Alpha virt. eigenvalues --    0.03439   0.03642   0.03837   0.05648   0.05834
 Alpha virt. eigenvalues --    0.06567   0.07199   0.07875   0.10904   0.11944
 Alpha virt. eigenvalues --    0.12186   0.12526   0.12659   0.12806   0.12860
 Alpha virt. eigenvalues --    0.13242   0.14680   0.14762   0.15326   0.15441
 Alpha virt. eigenvalues --    0.16082   0.16188   0.16228   0.17482   0.17611
 Alpha virt. eigenvalues --    0.18110   0.18474   0.18587   0.18952   0.20687
 Alpha virt. eigenvalues --    0.21084   0.22817   0.23908   0.24434   0.25300
 Alpha virt. eigenvalues --    0.25584   0.27072   0.28211   0.28929   0.29612
 Alpha virt. eigenvalues --    0.30410   0.32000   0.32932   0.34968   0.34981
 Alpha virt. eigenvalues --    0.35493   0.35499   0.37017   0.37254   0.38087
 Alpha virt. eigenvalues --    0.39043   0.39251   0.40889   0.42410   0.43186
 Alpha virt. eigenvalues --    0.43607   0.45054   0.45290   0.45531   0.46673
 Alpha virt. eigenvalues --    0.47539   0.47949   0.48814   0.49018   0.49905
 Alpha virt. eigenvalues --    0.50605   0.51078   0.52524   0.52671   0.53616
 Alpha virt. eigenvalues --    0.53820   0.55688   0.55712   0.56173   0.58346
 Alpha virt. eigenvalues --    0.59162   0.59622   0.59965   0.62751   0.65290
 Alpha virt. eigenvalues --    0.65788   0.69998   0.72550   0.74095   0.74397
 Alpha virt. eigenvalues --    0.76431   0.81401   0.84464   0.84676   0.86296
 Alpha virt. eigenvalues --    0.88987   0.92774   0.93281   0.94843   0.95567
 Alpha virt. eigenvalues --    0.95847   0.97355   0.99578   1.01224   1.03584
 Alpha virt. eigenvalues --    1.03846   1.04951   1.05682   1.07586   1.08146
 Alpha virt. eigenvalues --    1.08367   1.14902   1.16866   1.18253   1.18542
 Alpha virt. eigenvalues --    1.21477   1.23463   1.25593   1.26410   1.28976
 Alpha virt. eigenvalues --    1.29756   1.33362   1.35527   1.37723   1.42135
 Alpha virt. eigenvalues --    1.44217   1.46862   1.52404   1.61739   1.64921
 Alpha virt. eigenvalues --    1.69475   1.75220   1.75782   1.76058   1.78402
 Alpha virt. eigenvalues --    1.79742   1.79981   1.83641   1.87753   1.89284
 Alpha virt. eigenvalues --    1.90236   1.91105   1.91280   1.91656   1.92742
 Alpha virt. eigenvalues --    1.93716   2.11672   2.14101   2.15464   2.15551
 Alpha virt. eigenvalues --    2.16476   2.16692   2.17647   2.18158   2.19237
 Alpha virt. eigenvalues --    2.21253   2.27760   2.29403   2.32307   2.34845
 Alpha virt. eigenvalues --    2.35773   2.46156   2.48769   2.51299   2.51757
 Alpha virt. eigenvalues --    2.57070   2.60298   2.72328   2.77063   2.77497
 Alpha virt. eigenvalues --    2.80186   2.89624   3.29712   3.30416   3.31113
 Alpha virt. eigenvalues --    3.31311   3.31619   3.32651   3.33459   3.36543
 Alpha virt. eigenvalues --    3.36604   3.38196   3.39675   3.40487   3.42235
 Alpha virt. eigenvalues --    3.42763   3.46606   3.66539   3.66855   3.68955
 Alpha virt. eigenvalues --    3.71815   3.72791   3.89524   3.90163   3.91157
 Alpha virt. eigenvalues --    3.92374   3.92816
          Condensed to atoms (all electrons):
               1          2          3          4          5          6
     1  O    7.789538   0.307936   0.367370  -0.010886   0.004354  -0.000014
     2  H    0.307936   0.591832  -0.117823   0.002075  -0.000161   0.000263
     3  H    0.367370  -0.117823   0.600389  -0.001016  -0.000089  -0.000516
     4  O   -0.010886   0.002075  -0.001016   7.910650   0.343285   0.342939
     5  H    0.004354  -0.000161  -0.000089   0.343285   0.550857  -0.100208
     6  H   -0.000014   0.000263  -0.000516   0.342939  -0.100208   0.550884
     7  O   -0.030957   0.000289   0.011838  -0.022345  -0.000422   0.000143
     8  O   -0.000054   0.000113  -0.000862  -0.010857  -0.000020   0.004376
     9  H   -0.000875   0.000068  -0.000632  -0.001019  -0.000518  -0.000094
    10  H    0.000113   0.000194   0.000070   0.002059   0.000262  -0.000158
    11  H    0.003075   0.000297   0.001360  -0.000331   0.000064   0.000173
    12  H    0.002543   0.000682   0.000591   0.009941   0.000635   0.000196
    13  O   -0.017122   0.001924  -0.000849  -0.022262   0.000153  -0.000462
    14  H   -0.001273   0.000599  -0.000539   0.009847   0.000201   0.000613
    15  H    0.002446   0.000228  -0.000288  -0.000322   0.000169   0.000066
    16  Na  -0.067434   0.018045  -0.035715  -0.108467  -0.008499  -0.008196
               7          8          9         10         11         12
     1  O   -0.030957  -0.000054  -0.000875   0.000113   0.003075   0.002543
     2  H    0.000289   0.000113   0.000068   0.000194   0.000297   0.000682
     3  H    0.011838  -0.000862  -0.000632   0.000070   0.001360   0.000591
     4  O   -0.022345  -0.010857  -0.001019   0.002059  -0.000331   0.009941
     5  H   -0.000422  -0.000020  -0.000518   0.000262   0.000064   0.000635
     6  H    0.000143   0.004376  -0.000094  -0.000158   0.000173   0.000196
     7  O    7.974146  -0.017232  -0.000851   0.001925   0.311812   0.316162
     8  O   -0.017232   7.790368   0.367241   0.307901   0.002463  -0.001292
     9  H   -0.000851   0.367241   0.600421  -0.117796  -0.000285  -0.000544
    10  H    0.001925   0.307901  -0.117796   0.591810   0.000228   0.000602
    11  H    0.311812   0.002463  -0.000285   0.000228   0.559479  -0.097484
    12  H    0.316162  -0.001292  -0.000544   0.000602  -0.097484   0.563707
    13  O   -0.003177  -0.031123   0.011859   0.000287  -0.000565  -0.000219
    14  H   -0.000218   0.002484   0.000588   0.000682  -0.000091   0.000129
    15  H   -0.000567   0.003110   0.001361   0.000300  -0.000068  -0.000092
    16  Na  -0.099615  -0.067812  -0.035642   0.018116   0.002445  -0.009303
              13         14         15         16
     1  O   -0.017122  -0.001273   0.002446  -0.067434
     2  H    0.001924   0.000599   0.000228   0.018045
     3  H   -0.000849  -0.000539  -0.000288  -0.035715
     4  O   -0.022262   0.009847  -0.000322  -0.108467
     5  H    0.000153   0.000201   0.000169  -0.008499
     6  H   -0.000462   0.000613   0.000066  -0.008196
     7  O   -0.003177  -0.000218  -0.000567  -0.099615
     8  O   -0.031123   0.002484   0.003110  -0.067812
     9  H    0.011859   0.000588   0.001361  -0.035642
    10  H    0.000287   0.000682   0.000300   0.018116
    11  H   -0.000565  -0.000091  -0.000068   0.002445
    12  H   -0.000219   0.000129  -0.000092  -0.009303
    13  O    7.973544   0.315994   0.311957  -0.099388
    14  H    0.315994   0.563541  -0.097437  -0.009003
    15  H    0.311957  -0.097437   0.559537   0.002344
    16  Na  -0.099388  -0.009003   0.002344  10.508306
 Mulliken charges:
               1
     1  O   -0.348762
     2  H    0.193440
     3  H    0.176712
     4  O   -0.443289
     5  H    0.209939
     6  H    0.209994
     7  O   -0.440932
     8  O   -0.348804
     9  H    0.176717
    10  H    0.193405
    11  H    0.217427
    12  H    0.213745
    13  O   -0.440550
    14  H    0.213883
    15  H    0.217256
    16  Na   0.999819
 Sum of Mulliken charges =   1.00000
 Mulliken charges with hydrogens summed into heavy atoms:
               1
     1  O    0.021390
     4  O   -0.023356
     7  O   -0.009759
     8  O    0.021318
    13  O   -0.009412
    16  Na   0.999819
 Electronic spatial extent (au):  <R**2>=           1165.9215
 Charge=              1.0000 electrons
 Dipole moment (field-independent basis, Debye):
    X=             -0.0004    Y=             -0.0036    Z=              0.6237  Tot=              0.6237
 Quadrupole moment (field-independent basis, Debye-Ang):
   XX=             -9.5242   YY=            -15.6400   ZZ=            -19.8438
   XY=             -3.3619   XZ=             -0.0073   YZ=             -0.0008
 Traceless Quadrupole moment (field-independent basis, Debye-Ang):
   XX=              5.4785   YY=             -0.6374   ZZ=             -4.8411
   XY=             -3.3619   XZ=             -0.0073   YZ=             -0.0008
 Octapole moment (field-independent basis, Debye-Ang**2):
  XXX=              0.1659  YYY=              0.1337  ZZZ=             39.4635  XYY=              0.0431
  XXY=              0.0277  XXZ=            -15.1224  XZZ=             -0.1685  YZZ=             -0.1915
  YYZ=            -18.1787  XYZ=             -1.3551
 Hexadecapole moment (field-independent basis, Debye-Ang**3):
 XXXX=           -392.4884 YYYY=           -224.2352 ZZZZ=           -165.6712 XXXY=            -64.7694
 XXXZ=              0.0006 YYYX=             25.5244 YYYZ=              0.0938 ZZZX=             -0.2155
 ZZZY=             -0.0557 XXYY=            -49.5610 XXZZ=           -114.4935 YYZZ=            -75.7441
 XXYZ=              0.0135 YYXZ=              0.1351 ZZXY=             -1.5305
 N-N= 2.983942028837D+02 E-N=-1.888687151161D+03  KE= 5.412856154534D+02
 SC-PCM: Using the SCF Density.
 SC-PCM: The equilibrium contribution to the free energy is   -0.076518056 a.u.
 SC-PCM: The total energy including the PCM contribution is      -544.540214088 a.u.
 SC-PCM: Erms=  0.16454D-04 Emax=  0.71782D-04 Qconv=  0.10000D-06
 SC-PCM: Iterating to achieve self-consistent PCM reaction field, IExtIt=   2.
 Standard basis: Aug-CC-pVDZ (5D, 7F)
 There are   244 symmetry adapted cartesian basis functions of A   symmetry.
 There are   232 symmetry adapted basis functions of A   symmetry.
   232 basis functions,   406 primitive gaussians,   244 cartesian basis functions
    30 alpha electrons       30 beta electrons
       nuclear repulsion energy       302.5423181660 Hartrees.
 NAtoms=   16 NActive=   16 NUniq=   16 SFac= 1.00D+00 NAtFMM=   60 NAOKFM=F Big=F
 Integral buffers will be    131072 words long.
 Raffenetti 2 integral format.
 Two-electron integral symmetry is turned on.
 Nuclei-solvent charges/DBFs interaction =        -4.1447837120 a.u.
 Nuclear repulsion after self-consistent solvent charges =      298.3975344540 Hartrees.
 Nuclear repulsion after empirical dispersion term =      298.3892880917 Hartrees.
 One-electron integrals computed using PRISM.
 NBasis=   232 RedAO= T EigKep=  1.98D-04  NBF=   232
 NBsUse=   232 1.00D-06 EigRej= -1.00D+00 NBFU=   232
 Initial guess from the checkpoint file:  "sim003_type3_coord-5_2-3-0_10C_b1_id81786_step1560_2.chk"
 SCF N**3 symmetry information disabled.
 B after Tr=     0.000000    0.000000    0.000000
         Rot=    1.000000    0.000000    0.000000    0.000000 Ang=   0.00 deg.
 ExpMin= 6.16D-03 ExpMax= 3.17D+04 ExpMxC= 1.08D+03 IAcc=3 IRadAn=         5 AccDes= 0.00D+00
 Harris functional with IExCor=  402 and IRadAn=       5 diagonalized for initial guess.
 HarFok:  IExCor=  402 AccDes= 0.00D+00 IRadAn=         5 IDoV= 1 UseB2=F ITyADJ=14
 ICtDFT=  3500011 ScaDFX=  1.000000  1.000000  1.000000  1.000000
 FoFCou: FMM=F IPFlag=           0 FMFlag=      100000 FMFlg1=           0
         NFxFlg=           0 DoJE=T BraDBF=F KetDBF=T FulRan=T
         wScrn=  0.000000 ICntrl=       500 IOpCl=  0 I1Cent=   200000004 NGrid=           0
         NMat0=    1 NMatS0=      1 NMatT0=    0 NMatD0=    1 NMtDS0=    0 NMtDT0=    0
 Petite list used in FoFCou.
 Requested convergence on RMS density matrix=1.00D-08 within 500 cycles.
 Requested convergence on MAX density matrix=1.00D-06.
 Requested convergence on             energy=1.00D-06.
 No special actions if energy rises.
 SCF Done:  E(RB3LYP) =  -544.540209722     A.U. after    8 cycles
            NFock=  8  Conv=0.20D-09     -V/T= 2.0060

 **********************************************************************

            Population analysis using the SCF Density.

 **********************************************************************

 Orbital symmetries:
       Occupied  (A) (A) (A) (A) (A) (A) (A) (A) (A) (A) (A) (A)
                 (A) (A) (A) (A) (A) (A) (A) (A) (A) (A) (A) (A)
                 (A) (A) (A) (A) (A) (A)
       Virtual   (A) (A) (A) (A) (A) (A) (A) (A) (A) (A) (A) (A)
                 (A) (A) (A) (A) (A) (A) (A) (A) (A) (A) (A) (A)
                 (A) (A) (A) (A) (A) (A) (A) (A) (A) (A) (A) (A)
                 (A) (A) (A) (A) (A) (A) (A) (A) (A) (A) (A) (A)
                 (A) (A) (A) (A) (A) (A) (A) (A) (A) (A) (A) (A)
                 (A) (A) (A) (A) (A) (A) (A) (A) (A) (A) (A) (A)
                 (A) (A) (A) (A) (A) (A) (A) (A) (A) (A) (A) (A)
                 (A) (A) (A) (A) (A) (A) (A) (A) (A) (A) (A) (A)
                 (A) (A) (A) (A) (A) (A) (A) (A) (A) (A) (A) (A)
                 (A) (A) (A) (A) (A) (A) (A) (A) (A) (A) (A) (A)
                 (A) (A) (A) (A) (A) (A) (A) (A) (A) (A) (A) (A)
                 (A) (A) (A) (A) (A) (A) (A) (A) (A) (A) (A) (A)
                 (A) (A) (A) (A) (A) (A) (A) (A) (A) (A) (A) (A)
                 (A) (A) (A) (A) (A) (A) (A) (A) (A) (A) (A) (A)
                 (A) (A) (A) (A) (A) (A) (A) (A) (A) (A) (A) (A)
                 (A) (A) (A) (A) (A) (A) (A) (A) (A) (A) (A) (A)
                 (A) (A) (A) (A) (A) (A) (A) (A) (A) (A)
 The electronic state is 1-A.
 Alpha  occ. eigenvalues --  -38.43400 -19.17684 -19.17684 -19.17661 -19.17139
 Alpha  occ. eigenvalues --  -19.17139  -2.16939  -1.10320  -1.10256  -1.10210
 Alpha  occ. eigenvalues --   -1.03943  -1.03789  -1.03757  -1.03277  -1.03171
 Alpha  occ. eigenvalues --   -0.55417  -0.55364  -0.55330  -0.55271  -0.55270
 Alpha  occ. eigenvalues --   -0.43700  -0.42587  -0.42532  -0.41973  -0.41779
 Alpha  occ. eigenvalues --   -0.34598  -0.34382  -0.34149  -0.33968  -0.33926
 Alpha virt. eigenvalues --   -0.03786  -0.01630  -0.01005  -0.00979   0.01212
 Alpha virt. eigenvalues --    0.01770   0.01877   0.01893   0.02065   0.03396
 Alpha virt. eigenvalues --    0.03447   0.03648   0.03839   0.05650   0.05849
 Alpha virt. eigenvalues --    0.06575   0.07206   0.07884   0.10913   0.11950
 Alpha virt. eigenvalues --    0.12184   0.12547   0.12669   0.12809   0.12863
 Alpha virt. eigenvalues --    0.13250   0.14690   0.14771   0.15346   0.15443
 Alpha virt. eigenvalues --    0.16100   0.16185   0.16237   0.17482   0.17619
 Alpha virt. eigenvalues --    0.18110   0.18484   0.18601   0.18966   0.20677
 Alpha virt. eigenvalues --    0.21084   0.22824   0.23921   0.24452   0.25298
 Alpha virt. eigenvalues --    0.25593   0.27078   0.28220   0.28938   0.29621
 Alpha virt. eigenvalues --    0.30420   0.31999   0.32947   0.34977   0.34983
 Alpha virt. eigenvalues --    0.35505   0.35513   0.37031   0.37261   0.38095
 Alpha virt. eigenvalues --    0.39048   0.39263   0.40898   0.42427   0.43200
 Alpha virt. eigenvalues --    0.43614   0.45063   0.45303   0.45536   0.46682
 Alpha virt. eigenvalues --    0.47552   0.47961   0.48824   0.49025   0.49910
 Alpha virt. eigenvalues --    0.50618   0.51082   0.52537   0.52682   0.53633
 Alpha virt. eigenvalues --    0.53831   0.55701   0.55716   0.56188   0.58353
 Alpha virt. eigenvalues --    0.59179   0.59625   0.59980   0.62767   0.65292
 Alpha virt. eigenvalues --    0.65793   0.70007   0.72569   0.74099   0.74403
 Alpha virt. eigenvalues --    0.76453   0.81402   0.84457   0.84689   0.86308
 Alpha virt. eigenvalues --    0.88993   0.92784   0.93288   0.94855   0.95564
 Alpha virt. eigenvalues --    0.95860   0.97366   0.99589   1.01230   1.03595
 Alpha virt. eigenvalues --    1.03858   1.04961   1.05698   1.07590   1.08160
 Alpha virt. eigenvalues --    1.08383   1.14920   1.16883   1.18260   1.18543
 Alpha virt. eigenvalues --    1.21488   1.23468   1.25608   1.26413   1.28984
 Alpha virt. eigenvalues --    1.29761   1.33378   1.35534   1.37731   1.42145
 Alpha virt. eigenvalues --    1.44228   1.46878   1.52415   1.61760   1.64930
 Alpha virt. eigenvalues --    1.69482   1.75231   1.75804   1.76073   1.78400
 Alpha virt. eigenvalues --    1.79745   1.79982   1.83656   1.87761   1.89298
 Alpha virt. eigenvalues --    1.90245   1.91097   1.91290   1.91675   1.92740
 Alpha virt. eigenvalues --    1.93733   2.11685   2.14108   2.15470   2.15569
 Alpha virt. eigenvalues --    2.16485   2.16711   2.17659   2.18177   2.19234
 Alpha virt. eigenvalues --    2.21254   2.27778   2.29429   2.32326   2.34839
 Alpha virt. eigenvalues --    2.35773   2.46171   2.48782   2.51297   2.51769
 Alpha virt. eigenvalues --    2.57090   2.60301   2.72321   2.77084   2.77511
 Alpha virt. eigenvalues --    2.80191   2.89640   3.29726   3.30419   3.31113
 Alpha virt. eigenvalues --    3.31329   3.31631   3.32656   3.33466   3.36559
 Alpha virt. eigenvalues --    3.36614   3.38196   3.39685   3.40503   3.42248
 Alpha virt. eigenvalues --    3.42770   3.46615   3.66562   3.66877   3.68968
 Alpha virt. eigenvalues --    3.71809   3.72785   3.89544   3.90179   3.91168
 Alpha virt. eigenvalues --    3.92381   3.92815
          Condensed to atoms (all electrons):
               1          2          3          4          5          6
     1  O    7.790626   0.307780   0.367316  -0.010920   0.004362  -0.000017
     2  H    0.307780   0.592240  -0.117912   0.002072  -0.000161   0.000263
     3  H    0.367316  -0.117912   0.600366  -0.001006  -0.000087  -0.000516
     4  O   -0.010920   0.002072  -0.001006   7.910971   0.343261   0.342915
     5  H    0.004362  -0.000161  -0.000087   0.343261   0.550797  -0.100246
     6  H   -0.000017   0.000263  -0.000516   0.342915  -0.100246   0.550821
     7  O   -0.030982   0.000316   0.011810  -0.022294  -0.000424   0.000145
     8  O   -0.000074   0.000110  -0.000865  -0.010891  -0.000022   0.004384
     9  H   -0.000877   0.000068  -0.000633  -0.001009  -0.000518  -0.000092
    10  H    0.000111   0.000194   0.000070   0.002056   0.000262  -0.000158
    11  H    0.003077   0.000297   0.001363  -0.000326   0.000064   0.000173
    12  H    0.002549   0.000682   0.000593   0.009932   0.000636   0.000195
    13  O   -0.017087   0.001925  -0.000845  -0.022211   0.000155  -0.000464
    14  H   -0.001277   0.000600  -0.000540   0.009838   0.000200   0.000615
    15  H    0.002452   0.000229  -0.000288  -0.000317   0.000169   0.000066
    16  Na  -0.067915   0.018086  -0.035665  -0.108459  -0.008512  -0.008210
               7          8          9         10         11         12
     1  O   -0.030982  -0.000074  -0.000877   0.000111   0.003077   0.002549
     2  H    0.000316   0.000110   0.000068   0.000194   0.000297   0.000682
     3  H    0.011810  -0.000865  -0.000633   0.000070   0.001363   0.000593
     4  O   -0.022294  -0.010891  -0.001009   0.002056  -0.000326   0.009932
     5  H   -0.000424  -0.000022  -0.000518   0.000262   0.000064   0.000636
     6  H    0.000145   0.004384  -0.000092  -0.000158   0.000173   0.000195
     7  O    7.974545  -0.017198  -0.000846   0.001926   0.311789   0.316159
     8  O   -0.017198   7.791458   0.367187   0.307746   0.002469  -0.001295
     9  H   -0.000846   0.367187   0.600398  -0.117885  -0.000285  -0.000544
    10  H    0.001926   0.307746  -0.117885   0.592221   0.000230   0.000603
    11  H    0.311789   0.002469  -0.000285   0.000230   0.559333  -0.097532
    12  H    0.316159  -0.001295  -0.000544   0.000603  -0.097532   0.563649
    13  O   -0.003181  -0.031148   0.011831   0.000314  -0.000565  -0.000218
    14  H   -0.000218   0.002490   0.000591   0.000682  -0.000091   0.000129
    15  H   -0.000567   0.003112   0.001363   0.000300  -0.000068  -0.000092
    16  Na  -0.099610  -0.068293  -0.035592   0.018157   0.002442  -0.009318
              13         14         15         16
     1  O   -0.017087  -0.001277   0.002452  -0.067915
     2  H    0.001925   0.000600   0.000229   0.018086
     3  H   -0.000845  -0.000540  -0.000288  -0.035665
     4  O   -0.022211   0.009838  -0.000317  -0.108459
     5  H    0.000155   0.000200   0.000169  -0.008512
     6  H   -0.000464   0.000615   0.000066  -0.008210
     7  O   -0.003181  -0.000218  -0.000567  -0.099610
     8  O   -0.031148   0.002490   0.003112  -0.068293
     9  H    0.011831   0.000591   0.001363  -0.035592
    10  H    0.000314   0.000682   0.000300   0.018157
    11  H   -0.000565  -0.000091  -0.000068   0.002442
    12  H   -0.000218   0.000129  -0.000092  -0.009318
    13  O    7.973943   0.315991   0.311934  -0.099384
    14  H    0.315991   0.563482  -0.097485  -0.009017
    15  H    0.311934  -0.097485   0.559392   0.002341
    16  Na  -0.099384  -0.009017   0.002341  10.507902
 Mulliken charges:
               1
     1  O   -0.349125
     2  H    0.193208
     3  H    0.176839
     4  O   -0.443614
     5  H    0.210064
     6  H    0.210124
     7  O   -0.441371
     8  O   -0.349169
     9  H    0.176845
    10  H    0.193171
    11  H    0.217630
    12  H    0.213872
    13  O   -0.440991
    14  H    0.214010
    15  H    0.217459
    16  Na   1.001048
 Sum of Mulliken charges =   1.00000
 Mulliken charges with hydrogens summed into heavy atoms:
               1
     1  O    0.020922
     4  O   -0.023425
     7  O   -0.009868
     8  O    0.020846
    13  O   -0.009522
    16  Na   1.001048
 Electronic spatial extent (au):  <R**2>=           1165.9371
 Charge=              1.0000 electrons
 Dipole moment (field-independent basis, Debye):
    X=             -0.0004    Y=             -0.0035    Z=              0.6219  Tot=              0.6219
 Quadrupole moment (field-independent basis, Debye-Ang):
   XX=             -9.5363   YY=            -15.6534   ZZ=            -19.8393
   XY=             -3.3789   XZ=             -0.0073   YZ=             -0.0008
 Traceless Quadrupole moment (field-independent basis, Debye-Ang):
   XX=              5.4734   YY=             -0.6437   ZZ=             -4.8296
   XY=             -3.3789   XZ=             -0.0073   YZ=             -0.0008
 Octapole moment (field-independent basis, Debye-Ang**2):
  XXX=              0.1659  YYY=              0.1335  ZZZ=             39.4704  XYY=              0.0429
  XXY=              0.0276  XXZ=            -15.1232  XZZ=             -0.1684  YZZ=             -0.1915
  YYZ=            -18.1740  XYZ=             -1.3453
 Hexadecapole moment (field-independent basis, Debye-Ang**3):
 XXXX=           -392.6166 YYYY=           -224.3767 ZZZZ=           -165.6208 XXXY=            -64.8527
 XXXZ=              0.0007 YYYX=             25.3939 YYYZ=              0.0938 ZZZX=             -0.2152
 ZZZY=             -0.0555 XXYY=            -49.5978 XXZZ=           -114.4979 YYZZ=            -75.7535
 XXYZ=              0.0134 YYXZ=              0.1352 ZZXY=             -1.5451
 N-N= 2.983892880917D+02 E-N=-1.888684986106D+03  KE= 5.412854897667D+02
 SC-PCM: Using the SCF Density.
 SC-PCM: The equilibrium contribution to the free energy is   -0.076527329 a.u.
 SC-PCM: The total energy including the PCM contribution is      -544.540214373 a.u.
 SC-PCM: Erms=  0.10555D-05 Emax=  0.51821D-05 Qconv=  0.10000D-06
 SC-PCM: Iterating to achieve self-consistent PCM reaction field, IExtIt=   3.
 Standard basis: Aug-CC-pVDZ (5D, 7F)
 There are   244 symmetry adapted cartesian basis functions of A   symmetry.
 There are   232 symmetry adapted basis functions of A   symmetry.
   232 basis functions,   406 primitive gaussians,   244 cartesian basis functions
    30 alpha electrons       30 beta electrons
       nuclear repulsion energy       302.5423181660 Hartrees.
 NAtoms=   16 NActive=   16 NUniq=   16 SFac= 1.00D+00 NAtFMM=   60 NAOKFM=F Big=F
 Integral buffers will be    131072 words long.
 Raffenetti 2 integral format.
 Two-electron integral symmetry is turned on.
 Nuclei-solvent charges/DBFs interaction =        -4.1453324408 a.u.
 Nuclear repulsion after self-consistent solvent charges =      298.3969857252 Hartrees.
 Nuclear repulsion after empirical dispersion term =      298.3887393629 Hartrees.
 One-electron integrals computed using PRISM.
 NBasis=   232 RedAO= T EigKep=  1.98D-04  NBF=   232
 NBsUse=   232 1.00D-06 EigRej= -1.00D+00 NBFU=   232
 Initial guess from the checkpoint file:  "sim003_type3_coord-5_2-3-0_10C_b1_id81786_step1560_2.chk"
 SCF N**3 symmetry information disabled.
 B after Tr=     0.000000    0.000000    0.000000
         Rot=    1.000000    0.000000    0.000000    0.000000 Ang=   0.00 deg.
 Requested convergence on RMS density matrix=1.00D-08 within 500 cycles.
 Requested convergence on MAX density matrix=1.00D-06.
 Requested convergence on             energy=1.00D-06.
 No special actions if energy rises.
 SCF Done:  E(RB3LYP) =  -544.540214088     A.U. after    6 cycles
            NFock=  6  Conv=0.34D-09     -V/T= 2.0060

 **********************************************************************

            Population analysis using the SCF Density.

 **********************************************************************

 Orbital symmetries:
       Occupied  (A) (A) (A) (A) (A) (A) (A) (A) (A) (A) (A) (A)
                 (A) (A) (A) (A) (A) (A) (A) (A) (A) (A) (A) (A)
                 (A) (A) (A) (A) (A) (A)
       Virtual   (A) (A) (A) (A) (A) (A) (A) (A) (A) (A) (A) (A)
                 (A) (A) (A) (A) (A) (A) (A) (A) (A) (A) (A) (A)
                 (A) (A) (A) (A) (A) (A) (A) (A) (A) (A) (A) (A)
                 (A) (A) (A) (A) (A) (A) (A) (A) (A) (A) (A) (A)
                 (A) (A) (A) (A) (A) (A) (A) (A) (A) (A) (A) (A)
                 (A) (A) (A) (A) (A) (A) (A) (A) (A) (A) (A) (A)
                 (A) (A) (A) (A) (A) (A) (A) (A) (A) (A) (A) (A)
                 (A) (A) (A) (A) (A) (A) (A) (A) (A) (A) (A) (A)
                 (A) (A) (A) (A) (A) (A) (A) (A) (A) (A) (A) (A)
                 (A) (A) (A) (A) (A) (A) (A) (A) (A) (A) (A) (A)
                 (A) (A) (A) (A) (A) (A) (A) (A) (A) (A) (A) (A)
                 (A) (A) (A) (A) (A) (A) (A) (A) (A) (A) (A) (A)
                 (A) (A) (A) (A) (A) (A) (A) (A) (A) (A) (A) (A)
                 (A) (A) (A) (A) (A) (A) (A) (A) (A) (A) (A) (A)
                 (A) (A) (A) (A) (A) (A) (A) (A) (A) (A) (A) (A)
                 (A) (A) (A) (A) (A) (A) (A) (A) (A) (A) (A) (A)
                 (A) (A) (A) (A) (A) (A) (A) (A) (A) (A)
 The electronic state is 1-A.
 Alpha  occ. eigenvalues --  -38.43397 -19.17682 -19.17682 -19.17660 -19.17139
 Alpha  occ. eigenvalues --  -19.17139  -2.16936  -1.10318  -1.10253  -1.10208
 Alpha  occ. eigenvalues --   -1.03941  -1.03787  -1.03757  -1.03277  -1.03171
 Alpha  occ. eigenvalues --   -0.55417  -0.55364  -0.55330  -0.55269  -0.55268
 Alpha  occ. eigenvalues --   -0.43699  -0.42585  -0.42531  -0.41973  -0.41778
 Alpha  occ. eigenvalues --   -0.34596  -0.34380  -0.34148  -0.33968  -0.33926
 Alpha virt. eigenvalues --   -0.03785  -0.01630  -0.01005  -0.00980   0.01212
 Alpha virt. eigenvalues --    0.01770   0.01877   0.01894   0.02065   0.03396
 Alpha virt. eigenvalues --    0.03448   0.03648   0.03839   0.05650   0.05850
 Alpha virt. eigenvalues --    0.06575   0.07206   0.07884   0.10913   0.11950
 Alpha virt. eigenvalues --    0.12184   0.12549   0.12670   0.12809   0.12864
 Alpha virt. eigenvalues --    0.13250   0.14690   0.14771   0.15347   0.15443
 Alpha virt. eigenvalues --    0.16102   0.16185   0.16237   0.17482   0.17620
 Alpha virt. eigenvalues --    0.18111   0.18485   0.18602   0.18968   0.20677
 Alpha virt. eigenvalues --    0.21084   0.22824   0.23922   0.24453   0.25298
 Alpha virt. eigenvalues --    0.25594   0.27078   0.28220   0.28939   0.29621
 Alpha virt. eigenvalues --    0.30421   0.32000   0.32948   0.34979   0.34983
 Alpha virt. eigenvalues --    0.35506   0.35514   0.37032   0.37262   0.38095
 Alpha virt. eigenvalues --    0.39048   0.39264   0.40898   0.42428   0.43201
 Alpha virt. eigenvalues --    0.43614   0.45063   0.45304   0.45536   0.46682
 Alpha virt. eigenvalues --    0.47553   0.47962   0.48825   0.49025   0.49910
 Alpha virt. eigenvalues --    0.50618   0.51082   0.52538   0.52682   0.53634
 Alpha virt. eigenvalues --    0.53832   0.55702   0.55716   0.56189   0.58354
 Alpha virt. eigenvalues --    0.59180   0.59626   0.59981   0.62768   0.65292
 Alpha virt. eigenvalues --    0.65793   0.70007   0.72571   0.74099   0.74404
 Alpha virt. eigenvalues --    0.76454   0.81402   0.84457   0.84690   0.86309
 Alpha virt. eigenvalues --    0.88993   0.92786   0.93288   0.94856   0.95565
 Alpha virt. eigenvalues --    0.95861   0.97367   0.99590   1.01231   1.03596
 Alpha virt. eigenvalues --    1.03859   1.04962   1.05699   1.07590   1.08161
 Alpha virt. eigenvalues --    1.08384   1.14921   1.16884   1.18260   1.18544
 Alpha virt. eigenvalues --    1.21489   1.23468   1.25609   1.26413   1.28985
 Alpha virt. eigenvalues --    1.29762   1.33379   1.35535   1.37732   1.42146
 Alpha virt. eigenvalues --    1.44230   1.46880   1.52416   1.61762   1.64931
 Alpha virt. eigenvalues --    1.69482   1.75231   1.75805   1.76074   1.78400
 Alpha virt. eigenvalues --    1.79745   1.79982   1.83657   1.87761   1.89299
 Alpha virt. eigenvalues --    1.90246   1.91097   1.91291   1.91677   1.92740
 Alpha virt. eigenvalues --    1.93735   2.11686   2.14109   2.15471   2.15571
 Alpha virt. eigenvalues --    2.16486   2.16712   2.17660   2.18178   2.19234
 Alpha virt. eigenvalues --    2.21254   2.27780   2.29431   2.32327   2.34838
 Alpha virt. eigenvalues --    2.35773   2.46172   2.48783   2.51297   2.51770
 Alpha virt. eigenvalues --    2.57092   2.60301   2.72321   2.77086   2.77512
 Alpha virt. eigenvalues --    2.80192   2.89642   3.29727   3.30419   3.31114
 Alpha virt. eigenvalues --    3.31331   3.31632   3.32657   3.33467   3.36560
 Alpha virt. eigenvalues --    3.36615   3.38197   3.39686   3.40505   3.42249
 Alpha virt. eigenvalues --    3.42771   3.46616   3.66564   3.66879   3.68969
 Alpha virt. eigenvalues --    3.71809   3.72785   3.89546   3.90180   3.91169
 Alpha virt. eigenvalues --    3.92381   3.92815
          Condensed to atoms (all electrons):
               1          2          3          4          5          6
     1  O    7.790657   0.307774   0.367312  -0.010925   0.004362  -0.000017
     2  H    0.307774   0.592282  -0.117914   0.002072  -0.000161   0.000263
     3  H    0.367312  -0.117914   0.600373  -0.001006  -0.000087  -0.000516
     4  O   -0.010925   0.002072  -0.001006   7.910971   0.343261   0.342915
     5  H    0.004362  -0.000161  -0.000087   0.343261   0.550797  -0.100246
     6  H   -0.000017   0.000263  -0.000516   0.342915  -0.100246   0.550821
     7  O   -0.030984   0.000318   0.011811  -0.022290  -0.000424   0.000145
     8  O   -0.000074   0.000110  -0.000865  -0.010896  -0.000022   0.004384
     9  H   -0.000878   0.000068  -0.000633  -0.001009  -0.000518  -0.000092
    10  H    0.000111   0.000194   0.000070   0.002056   0.000262  -0.000158
    11  H    0.003077   0.000297   0.001363  -0.000325   0.000064   0.000173
    12  H    0.002550   0.000682   0.000592   0.009931   0.000636   0.000195
    13  O   -0.017083   0.001925  -0.000845  -0.022207   0.000155  -0.000464
    14  H   -0.001277   0.000600  -0.000540   0.009837   0.000200   0.000615
    15  H    0.002452   0.000229  -0.000288  -0.000317   0.000169   0.000066
    16  Na  -0.067945   0.018088  -0.035661  -0.108455  -0.008513  -0.008210
               7          8          9         10         11         12
     1  O   -0.030984  -0.000074  -0.000878   0.000111   0.003077   0.002550
     2  H    0.000318   0.000110   0.000068   0.000194   0.000297   0.000682
     3  H    0.011811  -0.000865  -0.000633   0.000070   0.001363   0.000592
     4  O   -0.022290  -0.010896  -0.001009   0.002056  -0.000325   0.009931
     5  H   -0.000424  -0.000022  -0.000518   0.000262   0.000064   0.000636
     6  H    0.000145   0.004384  -0.000092  -0.000158   0.000173   0.000195
     7  O    7.974565  -0.017193  -0.000846   0.001926   0.311785   0.316159
     8  O   -0.017193   7.791488   0.367182   0.307740   0.002469  -0.001296
     9  H   -0.000846   0.367182   0.600405  -0.117887  -0.000285  -0.000544
    10  H    0.001926   0.307740  -0.117887   0.592263   0.000230   0.000603
    11  H    0.311785   0.002469  -0.000285   0.000230   0.559317  -0.097533
    12  H    0.316159  -0.001296  -0.000544   0.000603  -0.097533   0.563660
    13  O   -0.003182  -0.031150   0.011831   0.000316  -0.000565  -0.000218
    14  H   -0.000218   0.002491   0.000590   0.000682  -0.000091   0.000129
    15  H   -0.000567   0.003112   0.001364   0.000300  -0.000068  -0.000092
    16  Na  -0.099611  -0.068324  -0.035588   0.018159   0.002442  -0.009318
              13         14         15         16
     1  O   -0.017083  -0.001277   0.002452  -0.067945
     2  H    0.001925   0.000600   0.000229   0.018088
     3  H   -0.000845  -0.000540  -0.000288  -0.035661
     4  O   -0.022207   0.009837  -0.000317  -0.108455
     5  H    0.000155   0.000200   0.000169  -0.008513
     6  H   -0.000464   0.000615   0.000066  -0.008210
     7  O   -0.003182  -0.000218  -0.000567  -0.099611
     8  O   -0.031150   0.002491   0.003112  -0.068324
     9  H    0.011831   0.000590   0.001364  -0.035588
    10  H    0.000316   0.000682   0.000300   0.018159
    11  H   -0.000565  -0.000091  -0.000068   0.002442
    12  H   -0.000218   0.000129  -0.000092  -0.009318
    13  O    7.973964   0.315991   0.311930  -0.099385
    14  H    0.315991   0.563493  -0.097485  -0.009018
    15  H    0.311930  -0.097485   0.559377   0.002341
    16  Na  -0.099385  -0.009018   0.002341  10.507864
 Mulliken charges:
               1
     1  O   -0.349112
     2  H    0.193170
     3  H    0.176833
     4  O   -0.443614
     5  H    0.210065
     6  H    0.210125
     7  O   -0.441394
     8  O   -0.349156
     9  H    0.176839
    10  H    0.193133
    11  H    0.217650
    12  H    0.213863
    13  O   -0.441014
    14  H    0.214001
    15  H    0.217478
    16  Na   1.001133
 Sum of Mulliken charges =   1.00000
 Mulliken charges with hydrogens summed into heavy atoms:
               1
     1  O    0.020891
     4  O   -0.023423
     7  O   -0.009881
     8  O    0.020815
    13  O   -0.009535
    16  Na   1.001133
 Electronic spatial extent (au):  <R**2>=           1165.9400
 Charge=              1.0000 electrons
 Dipole moment (field-independent basis, Debye):
    X=             -0.0004    Y=             -0.0035    Z=              0.6213  Tot=              0.6213
 Quadrupole moment (field-independent basis, Debye-Ang):
   XX=             -9.5391   YY=            -15.6551   ZZ=            -19.8387
   XY=             -3.3807   XZ=             -0.0073   YZ=             -0.0008
 Traceless Quadrupole moment (field-independent basis, Debye-Ang):
   XX=              5.4719   YY=             -0.6441   ZZ=             -4.8277
   XY=             -3.3807   XZ=             -0.0073   YZ=             -0.0008
 Octapole moment (field-independent basis, Debye-Ang**2):
  XXX=              0.1659  YYY=              0.1335  ZZZ=             39.4686  XYY=              0.0429
  XXY=              0.0276  XXZ=            -15.1238  XZZ=             -0.1684  YZZ=             -0.1915
  YYZ=            -18.1740  XYZ=             -1.3440
 Hexadecapole moment (field-independent basis, Debye-Ang**3):
 XXXX=           -392.6468 YYYY=           -224.3955 ZZZZ=           -165.6182 XXXY=            -64.8602
 XXXZ=              0.0007 YYYX=             25.3783 YYYZ=              0.0938 ZZZX=             -0.2151
 ZZZY=             -0.0555 XXYY=            -49.6080 XXZZ=           -114.4984 YYZZ=            -75.7538
 XXYZ=              0.0134 YYXZ=              0.1352 ZZXY=             -1.5466
 N-N= 2.983887393629D+02 E-N=-1.888684624310D+03  KE= 5.412854960072D+02
 SC-PCM: Using the SCF Density.
 SC-PCM: The equilibrium contribution to the free energy is   -0.076527909 a.u.
 SC-PCM: The total energy including the PCM contribution is      -544.540214378 a.u.
 SC-PCM: Erms=  0.15539D-06 Emax=  0.70323D-06 Qconv=  0.10000D-06
 SC-PCM: Iterating to achieve self-consistent PCM reaction field, IExtIt=   4.
 Standard basis: Aug-CC-pVDZ (5D, 7F)
 There are   244 symmetry adapted cartesian basis functions of A   symmetry.
 There are   232 symmetry adapted basis functions of A   symmetry.
   232 basis functions,   406 primitive gaussians,   244 cartesian basis functions
    30 alpha electrons       30 beta electrons
       nuclear repulsion energy       302.5423181660 Hartrees.
 NAtoms=   16 NActive=   16 NUniq=   16 SFac= 1.00D+00 NAtFMM=   60 NAOKFM=F Big=F
 Integral buffers will be    131072 words long.
 Raffenetti 2 integral format.
 Two-electron integral symmetry is turned on.
 Nuclei-solvent charges/DBFs interaction =        -4.1454326697 a.u.
 Nuclear repulsion after self-consistent solvent charges =      298.3968854963 Hartrees.
 Nuclear repulsion after empirical dispersion term =      298.3886391340 Hartrees.
 One-electron integrals computed using PRISM.
 NBasis=   232 RedAO= T EigKep=  1.98D-04  NBF=   232
 NBsUse=   232 1.00D-06 EigRej= -1.00D+00 NBFU=   232
 Initial guess from the checkpoint file:  "sim003_type3_coord-5_2-3-0_10C_b1_id81786_step1560_2.chk"
 SCF N**3 symmetry information disabled.
 B after Tr=     0.000000    0.000000    0.000000
         Rot=    1.000000    0.000000    0.000000    0.000000 Ang=   0.00 deg.
 Requested convergence on RMS density matrix=1.00D-08 within 500 cycles.
 Requested convergence on MAX density matrix=1.00D-06.
 Requested convergence on             energy=1.00D-06.
 No special actions if energy rises.
 SCF Done:  E(RB3LYP) =  -544.540214344     A.U. after    3 cycles
            NFock=  3  Conv=0.72D-08     -V/T= 2.0060

 **********************************************************************

            Population analysis using the SCF Density.

 **********************************************************************

 Orbital symmetries:
       Occupied  (A) (A) (A) (A) (A) (A) (A) (A) (A) (A) (A) (A)
                 (A) (A) (A) (A) (A) (A) (A) (A) (A) (A) (A) (A)
                 (A) (A) (A) (A) (A) (A)
       Virtual   (A) (A) (A) (A) (A) (A) (A) (A) (A) (A) (A) (A)
                 (A) (A) (A) (A) (A) (A) (A) (A) (A) (A) (A) (A)
                 (A) (A) (A) (A) (A) (A) (A) (A) (A) (A) (A) (A)
                 (A) (A) (A) (A) (A) (A) (A) (A) (A) (A) (A) (A)
                 (A) (A) (A) (A) (A) (A) (A) (A) (A) (A) (A) (A)
                 (A) (A) (A) (A) (A) (A) (A) (A) (A) (A) (A) (A)
                 (A) (A) (A) (A) (A) (A) (A) (A) (A) (A) (A) (A)
                 (A) (A) (A) (A) (A) (A) (A) (A) (A) (A) (A) (A)
                 (A) (A) (A) (A) (A) (A) (A) (A) (A) (A) (A) (A)
                 (A) (A) (A) (A) (A) (A) (A) (A) (A) (A) (A) (A)
                 (A) (A) (A) (A) (A) (A) (A) (A) (A) (A) (A) (A)
                 (A) (A) (A) (A) (A) (A) (A) (A) (A) (A) (A) (A)
                 (A) (A) (A) (A) (A) (A) (A) (A) (A) (A) (A) (A)
                 (A) (A) (A) (A) (A) (A) (A) (A) (A) (A) (A) (A)
                 (A) (A) (A) (A) (A) (A) (A) (A) (A) (A) (A) (A)
                 (A) (A) (A) (A) (A) (A) (A) (A) (A) (A) (A) (A)
                 (A) (A) (A) (A) (A) (A) (A) (A) (A) (A)
 The electronic state is 1-A.
 Alpha  occ. eigenvalues --  -38.43397 -19.17682 -19.17681 -19.17660 -19.17139
 Alpha  occ. eigenvalues --  -19.17138  -2.16936  -1.10317  -1.10253  -1.10207
 Alpha  occ. eigenvalues --   -1.03941  -1.03787  -1.03756  -1.03277  -1.03171
 Alpha  occ. eigenvalues --   -0.55417  -0.55364  -0.55330  -0.55269  -0.55268
 Alpha  occ. eigenvalues --   -0.43699  -0.42585  -0.42531  -0.41972  -0.41778
 Alpha  occ. eigenvalues --   -0.34596  -0.34380  -0.34148  -0.33968  -0.33925
 Alpha virt. eigenvalues --   -0.03785  -0.01630  -0.01004  -0.00980   0.01212
 Alpha virt. eigenvalues --    0.01770   0.01878   0.01894   0.02065   0.03396
 Alpha virt. eigenvalues --    0.03448   0.03648   0.03839   0.05650   0.05851
 Alpha virt. eigenvalues --    0.06575   0.07206   0.07884   0.10914   0.11950
 Alpha virt. eigenvalues --    0.12184   0.12550   0.12670   0.12809   0.12864
 Alpha virt. eigenvalues --    0.13250   0.14691   0.14771   0.15348   0.15443
 Alpha virt. eigenvalues --    0.16102   0.16185   0.16237   0.17482   0.17620
 Alpha virt. eigenvalues --    0.18111   0.18485   0.18602   0.18968   0.20677
 Alpha virt. eigenvalues --    0.21084   0.22824   0.23922   0.24454   0.25298
 Alpha virt. eigenvalues --    0.25594   0.27078   0.28221   0.28939   0.29621
 Alpha virt. eigenvalues --    0.30421   0.32000   0.32948   0.34979   0.34983
 Alpha virt. eigenvalues --    0.35506   0.35515   0.37032   0.37262   0.38095
 Alpha virt. eigenvalues --    0.39048   0.39264   0.40898   0.42428   0.43201
 Alpha virt. eigenvalues --    0.43614   0.45064   0.45304   0.45536   0.46682
 Alpha virt. eigenvalues --    0.47553   0.47962   0.48825   0.49025   0.49910
 Alpha virt. eigenvalues --    0.50619   0.51082   0.52539   0.52683   0.53634
 Alpha virt. eigenvalues --    0.53832   0.55702   0.55716   0.56189   0.58354
 Alpha virt. eigenvalues --    0.59180   0.59626   0.59981   0.62768   0.65292
 Alpha virt. eigenvalues --    0.65793   0.70007   0.72571   0.74099   0.74404
 Alpha virt. eigenvalues --    0.76454   0.81402   0.84458   0.84690   0.86309
 Alpha virt. eigenvalues --    0.88993   0.92786   0.93289   0.94856   0.95565
 Alpha virt. eigenvalues --    0.95862   0.97367   0.99590   1.01231   1.03596
 Alpha virt. eigenvalues --    1.03859   1.04963   1.05699   1.07590   1.08162
 Alpha virt. eigenvalues --    1.08384   1.14921   1.16884   1.18261   1.18544
 Alpha virt. eigenvalues --    1.21489   1.23468   1.25609   1.26413   1.28985
 Alpha virt. eigenvalues --    1.29762   1.33379   1.35535   1.37732   1.42146
 Alpha virt. eigenvalues --    1.44230   1.46880   1.52416   1.61762   1.64932
 Alpha virt. eigenvalues --    1.69482   1.75232   1.75805   1.76074   1.78400
 Alpha virt. eigenvalues --    1.79745   1.79982   1.83657   1.87761   1.89300
 Alpha virt. eigenvalues --    1.90246   1.91097   1.91291   1.91677   1.92740
 Alpha virt. eigenvalues --    1.93735   2.11686   2.14109   2.15471   2.15571
 Alpha virt. eigenvalues --    2.16486   2.16713   2.17660   2.18178   2.19234
 Alpha virt. eigenvalues --    2.21254   2.27780   2.29431   2.32327   2.34838
 Alpha virt. eigenvalues --    2.35773   2.46172   2.48783   2.51297   2.51770
 Alpha virt. eigenvalues --    2.57092   2.60301   2.72321   2.77086   2.77513
 Alpha virt. eigenvalues --    2.80192   2.89642   3.29728   3.30419   3.31114
 Alpha virt. eigenvalues --    3.31331   3.31632   3.32657   3.33467   3.36560
 Alpha virt. eigenvalues --    3.36615   3.38197   3.39686   3.40505   3.42249
 Alpha virt. eigenvalues --    3.42771   3.46616   3.66564   3.66879   3.68969
 Alpha virt. eigenvalues --    3.71809   3.72785   3.89546   3.90180   3.91169
 Alpha virt. eigenvalues --    3.92382   3.92815
          Condensed to atoms (all electrons):
               1          2          3          4          5          6
     1  O    7.790659   0.307774   0.367311  -0.010926   0.004362  -0.000017
     2  H    0.307774   0.592286  -0.117914   0.002072  -0.000161   0.000263
     3  H    0.367311  -0.117914   0.600376  -0.001006  -0.000087  -0.000516
     4  O   -0.010926   0.002072  -0.001006   7.910971   0.343261   0.342915
     5  H    0.004362  -0.000161  -0.000087   0.343261   0.550798  -0.100245
     6  H   -0.000017   0.000263  -0.000516   0.342915  -0.100245   0.550821
     7  O   -0.030984   0.000318   0.011811  -0.022289  -0.000424   0.000145
     8  O   -0.000074   0.000110  -0.000866  -0.010897  -0.000022   0.004384
     9  H   -0.000878   0.000068  -0.000633  -0.001009  -0.000518  -0.000092
    10  H    0.000111   0.000194   0.000070   0.002056   0.000262  -0.000158
    11  H    0.003077   0.000297   0.001363  -0.000325   0.000064   0.000173
    12  H    0.002550   0.000682   0.000592   0.009931   0.000636   0.000195
    13  O   -0.017082   0.001925  -0.000845  -0.022207   0.000155  -0.000464
    14  H   -0.001277   0.000600  -0.000540   0.009837   0.000200   0.000615
    15  H    0.002452   0.000229  -0.000288  -0.000317   0.000169   0.000066
    16  Na  -0.067949   0.018089  -0.035660  -0.108455  -0.008512  -0.008210
               7          8          9         10         11         12
     1  O   -0.030984  -0.000074  -0.000878   0.000111   0.003077   0.002550
     2  H    0.000318   0.000110   0.000068   0.000194   0.000297   0.000682
     3  H    0.011811  -0.000866  -0.000633   0.000070   0.001363   0.000592
     4  O   -0.022289  -0.010897  -0.001009   0.002056  -0.000325   0.009931
     5  H   -0.000424  -0.000022  -0.000518   0.000262   0.000064   0.000636
     6  H    0.000145   0.004384  -0.000092  -0.000158   0.000173   0.000195
     7  O    7.974567  -0.017193  -0.000846   0.001926   0.311784   0.316159
     8  O   -0.017193   7.791490   0.367182   0.307739   0.002469  -0.001296
     9  H   -0.000846   0.367182   0.600408  -0.117887  -0.000285  -0.000544
    10  H    0.001926   0.307739  -0.117887   0.592268   0.000230   0.000603
    11  H    0.311784   0.002469  -0.000285   0.000230   0.559315  -0.097533
    12  H    0.316159  -0.001296  -0.000544   0.000603  -0.097533   0.563664
    13  O   -0.003183  -0.031150   0.011832   0.000316  -0.000565  -0.000218
    14  H   -0.000218   0.002491   0.000590   0.000682  -0.000091   0.000129
    15  H   -0.000567   0.003112   0.001364   0.000300  -0.000068  -0.000092
    16  Na  -0.099612  -0.068327  -0.035588   0.018159   0.002442  -0.009319
              13         14         15         16
     1  O   -0.017082  -0.001277   0.002452  -0.067949
     2  H    0.001925   0.000600   0.000229   0.018089
     3  H   -0.000845  -0.000540  -0.000288  -0.035660
     4  O   -0.022207   0.009837  -0.000317  -0.108455
     5  H    0.000155   0.000200   0.000169  -0.008512
     6  H   -0.000464   0.000615   0.000066  -0.008210
     7  O   -0.003183  -0.000218  -0.000567  -0.099612
     8  O   -0.031150   0.002491   0.003112  -0.068327
     9  H    0.011832   0.000590   0.001364  -0.035588
    10  H    0.000316   0.000682   0.000300   0.018159
    11  H   -0.000565  -0.000091  -0.000068   0.002442
    12  H   -0.000218   0.000129  -0.000092  -0.009319
    13  O    7.973966   0.315991   0.311929  -0.099385
    14  H    0.315991   0.563497  -0.097485  -0.009018
    15  H    0.311929  -0.097485   0.559375   0.002341
    16  Na  -0.099385  -0.009018   0.002341  10.507857
 Mulliken charges:
               1
     1  O   -0.349109
     2  H    0.193166
     3  H    0.176831
     4  O   -0.443612
     5  H    0.210064
     6  H    0.210125
     7  O   -0.441395
     8  O   -0.349153
     9  H    0.176836
    10  H    0.193128
    11  H    0.217653
    12  H    0.213859
    13  O   -0.441015
    14  H    0.213997
    15  H    0.217481
    16  Na   1.001146
 Sum of Mulliken charges =   1.00000
 Mulliken charges with hydrogens summed into heavy atoms:
               1
     1  O    0.020887
     4  O   -0.023423
     7  O   -0.009884
     8  O    0.020811
    13  O   -0.009538
    16  Na   1.001146
 Electronic spatial extent (au):  <R**2>=           1165.9405
 Charge=              1.0000 electrons
 Dipole moment (field-independent basis, Debye):
    X=             -0.0004    Y=             -0.0035    Z=              0.6211  Tot=              0.6211
 Quadrupole moment (field-independent basis, Debye-Ang):
   XX=             -9.5397   YY=            -15.6553   ZZ=            -19.8386
   XY=             -3.3810   XZ=             -0.0073   YZ=             -0.0008
 Traceless Quadrupole moment (field-independent basis, Debye-Ang):
   XX=              5.4715   YY=             -0.6441   ZZ=             -4.8274
   XY=             -3.3810   XZ=             -0.0073   YZ=             -0.0008
 Octapole moment (field-independent basis, Debye-Ang**2):
  XXX=              0.1660  YYY=              0.1335  ZZZ=             39.4681  XYY=              0.0429
  XXY=              0.0276  XXZ=            -15.1240  XZZ=             -0.1684  YZZ=             -0.1915
  YYZ=            -18.1742  XYZ=             -1.3438
 Hexadecapole moment (field-independent basis, Debye-Ang**3):
 XXXX=           -392.6532 YYYY=           -224.3981 ZZZZ=           -165.6184 XXXY=            -64.8609
 XXXZ=              0.0007 YYYX=             25.3763 YYYZ=              0.0938 ZZZX=             -0.2150
 ZZZY=             -0.0555 XXYY=            -49.6099 XXZZ=           -114.4984 YYZZ=            -75.7537
 XXYZ=              0.0134 YYXZ=              0.1352 ZZXY=             -1.5467
 N-N= 2.983886391340D+02 E-N=-1.888684544528D+03  KE= 5.412854914382D+02
 SC-PCM: Using the SCF Density.
 SC-PCM: The equilibrium contribution to the free energy is   -0.076527976 a.u.
 SC-PCM: The total energy including the PCM contribution is      -544.540214377 a.u.
 SC-PCM: Erms=  0.27586D-07 Emax=  0.11542D-06 Qconv=  0.10000D-06
 SC-PCM: Convergence achieved in   5 iterations.
 SC-PCM: The reaction field is now self-consistent.
 Error on total polarization charges =  0.01066
 --------------------------------------------------------------------
 Self-consistent PCM results
 ===========================
 <psi(0)|   H    |psi(0)>                     (a.u.) =    -544.463881
 <psi(0)|H+V(0)/2|psi(0)>                     (a.u.) =    -544.540028
 <psi(0)|H+V(f)/2|psi(0)>                     (a.u.) =    -544.540409
 <psi(f)|   H    |psi(f)>                     (a.u.) =    -544.463686
 <psi(f)|H+V(f)/2|psi(f)>                     (a.u.) =    -544.540214
 Total free energy in solution:
 - with all non electrostatic terms           (a.u.) =    -544.515945
 --------------------------------------------------------------------
 (Unpolarized solute)-Solvent             (kcal/mol) =     -47.78
 (Polarized solute)-Solvent               (kcal/mol) =     -48.02
 Solute polarization                      (kcal/mol) =       0.12
 Total electrostatic                      (kcal/mol) =     -47.90
 --------------------------------------------------------------------
 Cavitation energy                        (kcal/mol) =      26.83
 Dispersion energy                        (kcal/mol) =     -12.54
 Repulsion energy                         (kcal/mol) =       0.93
 Total non electrostatic                  (kcal/mol) =      15.23
 DeltaG (solv)                            (kcal/mol) =     -32.67
 --------------------------------------------------------------------
 Dipole moment (Debye):
 in vacuo    : X= -0.0005 Y= -0.0035 Z=  0.6138 Tot=  0.6138
 in solution : X= -0.0004 Y= -0.0035 Z=  0.6211 Tot=  0.6211
 --------------------------------------------------------------------
 Partition over spheres:
 Sphere  on Atom  Surface  Charge   GEl     GCav    GDR
    1      O1      18.00   0.060    1.94    2.05   -0.59
    2      H2      14.28  -0.114   -4.94    1.70   -1.08
    3      H3      10.36  -0.073   -3.18    1.34   -0.73
    4      O4      18.61   0.025    0.65    2.14   -0.23
    5      H5      14.39  -0.119   -5.41    1.70   -1.03
    6      H6      14.38  -0.119   -5.41    1.70   -1.04
    7      O7      14.15   0.010    0.21    1.74   -0.22
    8      O8      18.01   0.060    1.94    2.05   -0.59
    9      H9      10.37  -0.073   -3.18    1.34   -0.73
   10      H10     14.29  -0.114   -4.94    1.70   -1.08
   11      H11     14.35  -0.119   -5.43    1.70   -1.05
   12      H12     14.41  -0.118   -5.39    1.70   -0.98
   13      O13     14.15   0.009    0.21    1.74   -0.22
   14      H14     14.41  -0.118   -5.39    1.70   -0.98
   15      H15     14.35  -0.119   -5.43    1.70   -1.05
   16     Na16      3.00  -0.077   -4.26    0.84   -0.01
 --------------------------------------------------------------------
 After PCM corrections, the energy is  -544.515944565     a.u.
 --------------------------------------------------------------------
 1\1\GINC-N640\SP\RB3LYP\Aug-CC-pVDZ\H10Na1O5(1+)\HNR2\18-Jul-2022\0\\#
  geom=check scrf=(solvent=water,iefpcm,externaliteration,1stvac,read) 
 rb3lyp/aug-cc-pvdz empiricaldispersion=gd3 scf=(maxcycle=500) int(Acc2
 E=11,grid=ultrafine)\\MD frame sim003_type3_coord-5_2-3-0_10C_b1_id817
 86_step1560\\1,1\O,1.7506254959,0.9207904143,-1.4945948907\H,1.9077514
 059,1.1530591351,-2.4172709303\H,2.5400371593,1.1948966812,-1.00849259
 31\O,-1.1375389136,1.5548411063,0.7452898627\H,-1.2379381407,2.4473850
 751,0.3905203338\H,-1.7768193539,1.4971404395,1.4667880251\O,2.2906598
 351,0.5700945685,1.3321871904\O,-0.2780081182,-2.0399876279,1.11576556
 86\H,-0.8774340228,-2.5281585974,0.5352738916\H,-0.152581312,-2.589888
 4231,1.8979720103\H,2.9859972915,-0.0035110785,1.6803161693\H,2.233695
 8173,1.2996073455,1.9633556821\O,-1.1951129479,-1.2652652559,-1.523222
 6752\H,-2.08695473,-0.9291384316,-1.6827342556\H,-0.9604336643,-1.7361
 478598,-2.3337239817\Na,0.3310241983,-0.1038974915,0.0126005928\\Versi
 on=ES64L-G16RevB.01\State=1-A\HF=-544.5402143\RMSD=7.201e-09\Dipole=-0
 .154413,0.1735227,0.075923\Quadrupole=1.1948805,-1.4917271,0.2968466,2
 .877414,3.1390127,1.0697816\PG=C01 [X(H10Na1O5)]\\@


 You can't act like a skunk without someone's getting wind of it.
 -- Lorene Workman
 Job cpu time:       0 days  0 hours 39 minutes 25.4 seconds.
 Elapsed time:       0 days  0 hours  1 minutes  1.7 seconds.
 File lengths (MBytes):  RWF=     84 Int=      0 D2E=      0 Chk=      6 Scr=      1
 Normal termination of Gaussian 16 at Mon Jul 18 21:34:45 2022.
