 Entering Gaussian System, Link 0=g16
 Initial command:
 /share/sw/gaussian/g16_B.01_avx2-enabled/g16/l1.exe "/scratch/hnr2/2615642/Gau-38586.inp" -scrdir="/scratch/hnr2/2615642/"
 Entering Link 1 = /share/sw/gaussian/g16_B.01_avx2-enabled/g16/l1.exe PID=     38589.
  
 Copyright (c) 1988-2017, Gaussian, Inc.  All Rights Reserved.
  
 This is part of the Gaussian(R) 16 program.  It is based on
 the Gaussian(R) 09 system (copyright 2009, Gaussian, Inc.),
 the Gaussian(R) 03 system (copyright 2003, Gaussian, Inc.),
 the Gaussian(R) 98 system (copyright 1998, Gaussian, Inc.),
 the Gaussian(R) 94 system (copyright 1995, Gaussian, Inc.),
 the Gaussian 92(TM) system (copyright 1992, Gaussian, Inc.),
 the Gaussian 90(TM) system (copyright 1990, Gaussian, Inc.),
 the Gaussian 88(TM) system (copyright 1988, Gaussian, Inc.),
 the Gaussian 86(TM) system (copyright 1986, Carnegie Mellon
 University), and the Gaussian 82(TM) system (copyright 1983,
 Carnegie Mellon University). Gaussian is a federally registered
 trademark of Gaussian, Inc.
  
 This software contains proprietary and confidential information,
 including trade secrets, belonging to Gaussian, Inc.
  
 This software is provided under written license and may be
 used, copied, transmitted, or stored only in accord with that
 written license.
  
 The following legend is applicable only to US Government
 contracts under FAR:
  
                    RESTRICTED RIGHTS LEGEND
  
 Use, reproduction and disclosure by the US Government is
 subject to restrictions as set forth in subparagraphs (a)
 and (c) of the Commercial Computer Software - Restricted
 Rights clause in FAR 52.227-19.
  
 Gaussian, Inc.
 340 Quinnipiac St., Bldg. 40, Wallingford CT 06492
  
  
 ---------------------------------------------------------------
 Warning -- This program may not be used in any manner that
 competes with the business of Gaussian, Inc. or will provide
 assistance to any competitor of Gaussian, Inc.  The licensee
 of this program is prohibited from giving any competitor of
 Gaussian, Inc. access to this program.  By using this program,
 the user acknowledges that Gaussian, Inc. is engaged in the
 business of creating and licensing software in the field of
 computational chemistry and represents and warrants to the
 licensee that it is not a competitor of Gaussian, Inc. and that
 it will not use this program in any manner prohibited above.
 ---------------------------------------------------------------
  

 Cite this work as:
 Gaussian 16, Revision B.01,
 M. J. Frisch, G. W. Trucks, H. B. Schlegel, G. E. Scuseria, 
 M. A. Robb, J. R. Cheeseman, G. Scalmani, V. Barone, 
 G. A. Petersson, H. Nakatsuji, X. Li, M. Caricato, A. V. Marenich, 
 J. Bloino, B. G. Janesko, R. Gomperts, B. Mennucci, H. P. Hratchian, 
 J. V. Ortiz, A. F. Izmaylov, J. L. Sonnenberg, D. Williams-Young, 
 F. Ding, F. Lipparini, F. Egidi, J. Goings, B. Peng, A. Petrone, 
 T. Henderson, D. Ranasinghe, V. G. Zakrzewski, J. Gao, N. Rega, 
 G. Zheng, W. Liang, M. Hada, M. Ehara, K. Toyota, R. Fukuda, 
 J. Hasegawa, M. Ishida, T. Nakajima, Y. Honda, O. Kitao, H. Nakai, 
 T. Vreven, K. Throssell, J. A. Montgomery, Jr., J. E. Peralta, 
 F. Ogliaro, M. J. Bearpark, J. J. Heyd, E. N. Brothers, K. N. Kudin, 
 V. N. Staroverov, T. A. Keith, R. Kobayashi, J. Normand, 
 K. Raghavachari, A. P. Rendell, J. C. Burant, S. S. Iyengar, 
 J. Tomasi, M. Cossi, J. M. Millam, M. Klene, C. Adamo, R. Cammi, 
 J. W. Ochterski, R. L. Martin, K. Morokuma, O. Farkas, 
 J. B. Foresman, and D. J. Fox, Gaussian, Inc., Wallingford CT, 2016.
 
 ******************************************
 Gaussian 16:  ES64L-G16RevB.01 20-Dec-2017
                18-Jul-2022 
 ******************************************
 %nprocshared=40
 Will use up to   40 processors via shared memory.
 %mem=60GB
 %chk=sim005_type3_coord-5_0-5-0_10C_b1_id81779_step2120.chk
 ----------------------------------------------------------------------
 # opt=(calcall,maxcycles=500,maxstep=10,cartesian) freq iop(1/152=500,
 1/8=10) scf=(maxcycle=500) int(Acc2E=11,grid=ultrafine) rb3lyp/aug-cc-
 pvdz empiricaldispersion=gd3
 ----------------------------------------------------------------------
 1/6=500,8=10,10=4,18=10,26=4,38=1,152=500/1,3;
 2/12=2,17=6,18=5,29=2,40=1/2;
 3/5=16,7=10,11=2,25=1,27=11,30=1,71=2,74=-5,75=-5,116=1,124=31,140=1/1,2,3;
 4//1;
 5/5=2,7=500,38=5,87=11/2;
 8/6=4,10=90,11=11,87=11/1;
 11/6=1,8=1,9=11,15=111,16=1,87=11/1,2,10;
 10/6=1,87=11/2;
 6/7=2,8=2,9=2,10=2,18=1,28=1,87=11/1;
 7/7=1,10=1,25=1,87=11/1,2,3,16;
 1/6=500,8=10,10=4,18=10,26=4,152=500/3(3);
 2/29=1/2;
 7/7=1,8=1,9=1,25=1,44=-1,87=11/16;
 99/12=1/99;
 2/29=1/2;
 3/5=16,7=10,11=2,25=1,27=11,30=1,71=2,74=-5,75=-5,116=1,124=31,140=1/1,2,3;
 4/5=5,16=3,69=1/1;
 5/5=2,7=500,38=5,87=11/2;
 8/6=4,10=90,11=11,87=11/1;
 11/6=1,8=1,9=11,15=111,16=1,87=11/1,2,10;
 10/6=1,87=11/2;
 7/7=1,10=1,25=1,87=11/1,2,3,16;
 1/6=500,8=10,10=4,18=10,26=4,152=500/3(-8);
 2/29=1/2;
 6/7=2,8=2,9=2,10=2,18=1,19=2,28=1,87=11/1;
 7/7=1,8=1,9=1,25=1,44=-1,87=11/16;
 99/12=1/99;
 -----------------------------------------------------------
 MD frame sim005_type3_coord-5_0-5-0_10C_b1_id81779_step2120
 -----------------------------------------------------------
 Symbolic Z-matrix:
 Charge =  1 Multiplicity = 1
 O                     1.18614  -1.1623    1.85785 
 O                     0.48845  -1.95154  -1.3885 
 O                    -2.24354  -0.5141    0.60751 
 H                     0.30246  -2.77555  -0.93949 
 H                     1.30646  -2.11255  -1.8575 
 H                    -2.42854  -0.42109   1.5425 
 H                    -3.09454  -0.70309   0.2125 
 H                     2.08784  -0.9685    1.60254 
 H                     1.18334  -1.0783    2.81115 
 O                    -0.87236   1.3516   -1.8065 
 O                     1.89034   1.46545  -0.14604 
 H                    -1.78876   1.1023   -1.68849 
 H                    -0.72486   1.2853   -2.7495 
 H                     2.54234   1.04745  -0.70803 
 H                     2.39554   2.06546   0.40197 
 Na                    0.        0.        0. 
 

 GradGradGradGradGradGradGradGradGradGradGradGradGradGradGradGradGradGrad
 Berny optimization.
 Initialization pass.
 No Z-matrix variables, so optimization will use Cartesian coordinates.
 Trust Radius=1.00D-01 FncErr=1.00D-07 GrdErr=1.00D-06 EigMax=2.50D+02 EigMin=1.00D-04
 Number of steps in this run=    500 maximum allowed number of steps=    500.
 GradGradGradGradGradGradGradGradGradGradGradGradGradGradGradGradGradGrad

 ---------------------------------------------------------------------------------------------------
                            Z-MATRIX (ANGSTROMS AND DEGREES)
   CD    Cent   Atom    N1       Length/X        N2       Alpha/Y        N3        Beta/Z          J
 ---------------------------------------------------------------------------------------------------
      1      1  O        0   1.186140         -1.162300          1.857850
      2      2  O        0   0.488450         -1.951540         -1.388500
      3      3  O        0  -2.243540         -0.514100          0.607510
      4      4  H        0   0.302460         -2.775550         -0.939490
      5      5  H        0   1.306460         -2.112550         -1.857500
      6      6  H        0  -2.428540         -0.421090          1.542500
      7      7  H        0  -3.094540         -0.703090          0.212500
      8      8  H        0   2.087840         -0.968500          1.602540
      9      9  H        0   1.183340         -1.078300          2.811150
     10     10  O        0  -0.872360          1.351600         -1.806500
     11     11  O        0   1.890340          1.465450         -0.146040
     12     12  H        0  -1.788760          1.102300         -1.688490
     13     13  H        0  -0.724860          1.285300         -2.749500
     14     14  H        0   2.542340          1.047450         -0.708030
     15     15  H        0   2.395540          2.065460          0.401970
     16     16  Na       0   0.000000          0.000000          0.000000
 ---------------------------------------------------------------------------------------------------
                         Z-Matrix orientation:                         
 ---------------------------------------------------------------------
 Center     Atomic      Atomic             Coordinates (Angstroms)
 Number     Number       Type             X           Y           Z
 ---------------------------------------------------------------------
      1          8           0        1.186140   -1.162300    1.857850
      2          8           0        0.488450   -1.951540   -1.388500
      3          8           0       -2.243540   -0.514100    0.607510
      4          1           0        0.302460   -2.775550   -0.939490
      5          1           0        1.306460   -2.112550   -1.857500
      6          1           0       -2.428540   -0.421090    1.542500
      7          1           0       -3.094540   -0.703090    0.212500
      8          1           0        2.087840   -0.968500    1.602540
      9          1           0        1.183340   -1.078300    2.811150
     10          8           0       -0.872360    1.351600   -1.806500
     11          8           0        1.890340    1.465450   -0.146040
     12          1           0       -1.788760    1.102300   -1.688490
     13          1           0       -0.724860    1.285300   -2.749500
     14          1           0        2.542340    1.047450   -0.708030
     15          1           0        2.395540    2.065460    0.401970
     16         11           0        0.000000    0.000000    0.000000
 ---------------------------------------------------------------------
                    Distance matrix (angstroms):
                    1          2          3          4          5
     1  O    0.000000
     2  O    3.412984   0.000000
     3  O    3.707589   3.676147   0.000000
     4  H    3.347921   0.956658   3.740251   0.000000
     5  H    3.836832   0.956570   4.608017   1.513383   0.000000
     6  H    3.703343   4.409293   0.957644   4.377456   5.326468
     7  H    4.608934   4.118209   0.957053   4.142678   5.063623
     8  H    0.956977   3.531393   4.467372   3.593735   3.727101
     9  H    0.956998   4.345398   4.113132   4.209977   4.783422
    10  O    4.897405   3.596841   3.344909   4.377816   4.092700
    11  O    3.378837   3.896771   4.644935   4.597500   4.009002
    12  H    5.153152   3.821206   2.844502   4.468996   4.465894
    13  H    5.556108   3.715047   4.100457   4.563116   4.057993
    14  H    3.647741   3.698033   5.203242   4.436887   3.582496
    15  H    3.741747   4.793648   5.312009   5.442047   4.873096
    16  Na   2.491882   2.444386   2.380512   2.945811   3.101614
                    6          7          8          9         10
     6  H    0.000000
     7  H    1.513929   0.000000
     8  H    4.549830   5.372124   0.000000
     9  H    3.884208   5.019365   1.513577   0.000000
    10  O    4.096331   3.638158   5.076140   5.608298   0.000000
    11  O    5.006289   5.447949   3.003440   3.964276   3.225306
    12  H    3.628957   2.928866   5.490639   5.816799   0.957009
    13  H    4.922962   4.282817   5.650765   6.336297   0.956766
    14  H    5.650765   5.973791   3.099897   4.330164   3.599906
    15  H    5.545763   6.151565   3.277341   4.142077   4.008255
    16  Na   2.907650   3.180514   2.804497   3.235056   2.418941
                   11         12         13         14         15
    11  O    0.000000
    12  H    4.005847   0.000000
    13  H    3.694554   1.513643   0.000000
    14  H    0.956902   4.441029   3.859892   0.000000
    15  H    0.956846   4.775570   4.503033   1.513273   0.000000
    16  Na   2.396301   2.695501   3.120444   2.839357   3.188466
                   16
    16  Na   0.000000
 Stoichiometry    H10NaO5(1+)
 Framework group  C1[X(H10NaO5)]
 Deg. of freedom    42
 Full point group                 C1      NOp   1
 Largest Abelian subgroup         C1      NOp   1
 Largest concise Abelian subgroup C1      NOp   1
                         Standard orientation:                         
 ---------------------------------------------------------------------
 Center     Atomic      Atomic             Coordinates (Angstroms)
 Number     Number       Type             X           Y           Z
 ---------------------------------------------------------------------
      1          8           0       -2.177892   -1.137222   -0.422171
      2          8           0       -0.083989   -0.449171    2.183710
      3          8           0        1.439504   -1.815400   -0.870213
      4          1           0       -0.354578   -1.345975    2.377923
      5          1           0       -0.546146    0.086267    2.827715
      6          1           0        1.122506   -2.305241   -1.629588
      7          1           0        2.301738   -2.188336   -0.687397
      8          1           0       -2.739811   -0.414435   -0.143549
      9          1           0       -2.656049   -1.549406   -1.141417
     10          8           0        2.004904    1.389054   -0.095483
     11          8           0       -1.106360    2.061355   -0.615726
     12          1           0        2.638187    0.687345   -0.245222
     13          1           0        2.362962    1.882513    0.641873
     14          1           0       -1.442157    2.376825    0.222952
     15          1           0       -1.671304    2.471861   -1.269849
     16         11           0        0.034120   -0.008214   -0.217671
 ---------------------------------------------------------------------
 Rotational constants (GHZ):           1.5574517           1.4377290           1.1530043
 Standard basis: Aug-CC-pVDZ (5D, 7F)
 There are   244 symmetry adapted cartesian basis functions of A   symmetry.
 There are   232 symmetry adapted basis functions of A   symmetry.
   232 basis functions,   406 primitive gaussians,   244 cartesian basis functions
    30 alpha electrons       30 beta electrons
       nuclear repulsion energy       298.6075510965 Hartrees.
 NAtoms=   16 NActive=   16 NUniq=   16 SFac= 1.00D+00 NAtFMM=   60 NAOKFM=F Big=F
 Integral buffers will be    131072 words long.
 Raffenetti 2 integral format.
 Two-electron integral symmetry is turned on.
 Nuclear repulsion after empirical dispersion term =      298.5995180322 Hartrees.
 One-electron integrals computed using PRISM.
 NBasis=   232 RedAO= T EigKep=  2.93D-04  NBF=   232
 NBsUse=   232 1.00D-06 EigRej= -1.00D+00 NBFU=   232
 ExpMin= 6.16D-03 ExpMax= 3.17D+04 ExpMxC= 1.08D+03 IAcc=3 IRadAn=         5 AccDes= 0.00D+00
 Harris functional with IExCor=  402 and IRadAn=       5 diagonalized for initial guess.
 HarFok:  IExCor=  402 AccDes= 0.00D+00 IRadAn=         5 IDoV= 1 UseB2=F ITyADJ=14
 ICtDFT=  3500011 ScaDFX=  1.000000  1.000000  1.000000  1.000000
 FoFCou: FMM=F IPFlag=           0 FMFlag=      100000 FMFlg1=           0
         NFxFlg=           0 DoJE=T BraDBF=F KetDBF=T FulRan=T
         wScrn=  0.000000 ICntrl=       500 IOpCl=  0 I1Cent=   200000004 NGrid=           0
         NMat0=    1 NMatS0=      1 NMatT0=    0 NMatD0=    1 NMtDS0=    0 NMtDT0=    0
 Petite list used in FoFCou.
 Requested convergence on RMS density matrix=1.00D-08 within 500 cycles.
 Requested convergence on MAX density matrix=1.00D-06.
 Requested convergence on             energy=1.00D-06.
 No special actions if energy rises.
 SCF Done:  E(RB3LYP) =  -544.447950109     A.U. after   10 cycles
            NFock= 10  Conv=0.42D-08     -V/T= 2.0056
 DoSCS=F DFT=T ScalE2(SS,OS)=  1.000000  1.000000
 Range of M.O.s used for correlation:     1   232
 NBasis=   232 NAE=    30 NBE=    30 NFC=     0 NFV=     0
 NROrb=    232 NOA=    30 NOB=    30 NVA=   202 NVB=   202

 **** Warning!!: The largest alpha MO coefficient is  0.12246957D+02

 Symmetrizing basis deriv contribution to polar:
 IMax=3 JMax=2 DiffMx= 0.00D+00
 G2DrvN: will do    17 centers at a time, making    1 passes.
 Calling FoFCou, ICntrl=  3107 FMM=F I1Cent=   0 AccDes= 1.00D-11.
 End of G2Drv F.D. properties file   721 does not exist.
 End of G2Drv F.D. properties file   722 does not exist.
 End of G2Drv F.D. properties file   788 does not exist.
          IDoAtm=1111111111111111
          Differentiating once with respect to electric field.
                with respect to dipole field.
          Differentiating once with respect to nuclear coordinates.
 Keep R1 ints in memory in canonical form, NReq=408195286.
          There are    51 degrees of freedom in the 1st order CPHF.  IDoFFX=6 NUNeed=     3.
     48 vectors produced by pass  0 Test12= 1.19D-14 1.96D-09 XBig12= 2.21D+01 9.80D-01.
 AX will form    48 AO Fock derivatives at one time.
     48 vectors produced by pass  1 Test12= 1.19D-14 1.96D-09 XBig12= 2.17D+00 1.87D-01.
     48 vectors produced by pass  2 Test12= 1.19D-14 1.96D-09 XBig12= 2.76D-02 2.28D-02.
     48 vectors produced by pass  3 Test12= 1.19D-14 1.96D-09 XBig12= 8.01D-05 1.29D-03.
     48 vectors produced by pass  4 Test12= 1.19D-14 1.96D-09 XBig12= 1.06D-07 3.30D-05.
     19 vectors produced by pass  5 Test12= 1.19D-14 1.96D-09 XBig12= 9.55D-11 9.34D-07.
      3 vectors produced by pass  6 Test12= 1.19D-14 1.96D-09 XBig12= 6.44D-14 3.76D-08.
 InvSVY:  IOpt=1 It=  1 EMax= 3.55D-15
 Solved reduced A of dimension   262 with    51 vectors.
 Isotropic polarizability for W=    0.000000       46.81 Bohr**3.
 End of Minotr F.D. properties file   721 does not exist.
 End of Minotr F.D. properties file   722 does not exist.
 End of Minotr F.D. properties file   788 does not exist.

 **********************************************************************

            Population analysis using the SCF Density.

 **********************************************************************

 Orbital symmetries:
       Occupied  (A) (A) (A) (A) (A) (A) (A) (A) (A) (A) (A) (A)
                 (A) (A) (A) (A) (A) (A) (A) (A) (A) (A) (A) (A)
                 (A) (A) (A) (A) (A) (A)
       Virtual   (A) (A) (A) (A) (A) (A) (A) (A) (A) (A) (A) (A)
                 (A) (A) (A) (A) (A) (A) (A) (A) (A) (A) (A) (A)
                 (A) (A) (A) (A) (A) (A) (A) (A) (A) (A) (A) (A)
                 (A) (A) (A) (A) (A) (A) (A) (A) (A) (A) (A) (A)
                 (A) (A) (A) (A) (A) (A) (A) (A) (A) (A) (A) (A)
                 (A) (A) (A) (A) (A) (A) (A) (A) (A) (A) (A) (A)
                 (A) (A) (A) (A) (A) (A) (A) (A) (A) (A) (A) (A)
                 (A) (A) (A) (A) (A) (A) (A) (A) (A) (A) (A) (A)
                 (A) (A) (A) (A) (A) (A) (A) (A) (A) (A) (A) (A)
                 (A) (A) (A) (A) (A) (A) (A) (A) (A) (A) (A) (A)
                 (A) (A) (A) (A) (A) (A) (A) (A) (A) (A) (A) (A)
                 (A) (A) (A) (A) (A) (A) (A) (A) (A) (A) (A) (A)
                 (A) (A) (A) (A) (A) (A) (A) (A) (A) (A) (A) (A)
                 (A) (A) (A) (A) (A) (A) (A) (A) (A) (A) (A) (A)
                 (A) (A) (A) (A) (A) (A) (A) (A) (A) (A) (A) (A)
                 (A) (A) (A) (A) (A) (A) (A) (A) (A) (A) (A) (A)
                 (A) (A) (A) (A) (A) (A) (A) (A) (A) (A)
 The electronic state is 1-A.
 Alpha  occ. eigenvalues --  -38.59178 -19.31974 -19.31495 -19.31227 -19.31057
 Alpha  occ. eigenvalues --  -19.29905  -2.32661  -1.26024  -1.25909  -1.25852
 Alpha  occ. eigenvalues --   -1.18624  -1.18203  -1.17875  -1.17700  -1.16606
 Alpha  occ. eigenvalues --   -0.70195  -0.69760  -0.69417  -0.69188  -0.68154
 Alpha  occ. eigenvalues --   -0.57751  -0.56956  -0.56212  -0.56001  -0.54513
 Alpha  occ. eigenvalues --   -0.48737  -0.48670  -0.47916  -0.47396  -0.46724
 Alpha virt. eigenvalues --   -0.17128  -0.14588  -0.13232  -0.12620  -0.10691
 Alpha virt. eigenvalues --   -0.09025  -0.08581  -0.07396  -0.06678  -0.06379
 Alpha virt. eigenvalues --   -0.05775  -0.05488  -0.05296  -0.04983  -0.04641
 Alpha virt. eigenvalues --   -0.03666  -0.03440  -0.02203  -0.00750  -0.00238
 Alpha virt. eigenvalues --    0.00125   0.00441   0.01048   0.01270   0.01524
 Alpha virt. eigenvalues --    0.01876   0.02056   0.02657   0.03464   0.03685
 Alpha virt. eigenvalues --    0.04425   0.04602   0.04853   0.05359   0.05647
 Alpha virt. eigenvalues --    0.06451   0.06799   0.07468   0.07592   0.08569
 Alpha virt. eigenvalues --    0.08685   0.09631   0.10647   0.11661   0.12095
 Alpha virt. eigenvalues --    0.13219   0.14106   0.15370   0.16374   0.16482
 Alpha virt. eigenvalues --    0.17436   0.18583   0.19416   0.20198   0.20877
 Alpha virt. eigenvalues --    0.21053   0.21964   0.22803   0.23368   0.24120
 Alpha virt. eigenvalues --    0.25600   0.25893   0.27577   0.28390   0.29601
 Alpha virt. eigenvalues --    0.31044   0.32214   0.32997   0.33612   0.34022
 Alpha virt. eigenvalues --    0.34147   0.34489   0.35965   0.36311   0.36669
 Alpha virt. eigenvalues --    0.37203   0.37828   0.38406   0.38801   0.40809
 Alpha virt. eigenvalues --    0.41218   0.41756   0.43024   0.43356   0.44481
 Alpha virt. eigenvalues --    0.45235   0.45814   0.46090   0.47624   0.49080
 Alpha virt. eigenvalues --    0.51152   0.56817   0.57057   0.59646   0.61993
 Alpha virt. eigenvalues --    0.64421   0.67005   0.67389   0.68811   0.69399
 Alpha virt. eigenvalues --    0.72002   0.80258   0.81094   0.81272   0.82341
 Alpha virt. eigenvalues --    0.82913   0.83570   0.84704   0.86583   0.87935
 Alpha virt. eigenvalues --    0.91108   0.92072   0.92795   0.93922   0.94865
 Alpha virt. eigenvalues --    0.96259   1.02399   1.03092   1.04388   1.05084
 Alpha virt. eigenvalues --    1.06755   1.09332   1.11966   1.14841   1.15258
 Alpha virt. eigenvalues --    1.17600   1.20325   1.21171   1.24404   1.27149
 Alpha virt. eigenvalues --    1.29756   1.33634   1.35330   1.38969   1.45377
 Alpha virt. eigenvalues --    1.51996   1.62500   1.63254   1.63905   1.65713
 Alpha virt. eigenvalues --    1.65984   1.69396   1.70047   1.72197   1.74149
 Alpha virt. eigenvalues --    1.75650   1.77330   1.78311   1.79858   1.81496
 Alpha virt. eigenvalues --    1.84766   1.95757   1.98700   2.01393   2.01442
 Alpha virt. eigenvalues --    2.02923   2.03558   2.04609   2.05106   2.06633
 Alpha virt. eigenvalues --    2.07304   2.13638   2.18109   2.19372   2.19618
 Alpha virt. eigenvalues --    2.22107   2.24570   2.33758   2.36525   2.36889
 Alpha virt. eigenvalues --    2.42192   2.45051   2.58491   2.60073   2.64039
 Alpha virt. eigenvalues --    2.65084   2.69296   3.16214   3.16951   3.17436
 Alpha virt. eigenvalues --    3.18425   3.18787   3.19474   3.20303   3.20968
 Alpha virt. eigenvalues --    3.23060   3.25016   3.25536   3.26129   3.27006
 Alpha virt. eigenvalues --    3.28816   3.31719   3.52547   3.53838   3.55244
 Alpha virt. eigenvalues --    3.55997   3.57438   3.76536   3.77465   3.78559
 Alpha virt. eigenvalues --    3.79493   3.82127
          Condensed to atoms (all electrons):
               1          2          3          4          5          6
     1  O    7.522752  -0.017780  -0.006473   0.003885   0.001760   0.005186
     2  O   -0.017780   7.574597   0.001319   0.344243   0.346468  -0.002165
     3  O   -0.006473   0.001319   7.525282   0.004425   0.000062   0.351473
     4  H    0.003885   0.344243   0.004425   0.606633  -0.101477   0.000544
     5  H    0.001760   0.346468   0.000062  -0.101477   0.601884  -0.000490
     6  H    0.005186  -0.002165   0.351473   0.000544  -0.000490   0.622069
     7  H   -0.000546   0.002207   0.362800  -0.000145   0.000086  -0.099767
     8  H    0.344285   0.000778  -0.001111  -0.001270   0.002253  -0.000958
     9  H    0.324681   0.001638   0.002537   0.000746   0.000156   0.000147
    10  O    0.000815  -0.010776  -0.002417   0.001419  -0.002351   0.001085
    11  O   -0.008163   0.005814   0.002237   0.001286   0.000854  -0.001799
    12  H    0.000423  -0.004080  -0.004589   0.000250  -0.001475   0.001405
    13  H   -0.000010   0.005405   0.002907  -0.000498   0.001371  -0.000466
    14  H   -0.002661   0.000956   0.001106  -0.000405  -0.001141  -0.000519
    15  H   -0.000392   0.000803   0.000577   0.000000   0.000220  -0.000065
    16  Na   0.005876  -0.001926   0.010680  -0.005488  -0.012685  -0.015305
               7          8          9         10         11         12
     1  O   -0.000546   0.344285   0.324681   0.000815  -0.008163   0.000423
     2  O    0.002207   0.000778   0.001638  -0.010776   0.005814  -0.004080
     3  O    0.362800  -0.001111   0.002537  -0.002417   0.002237  -0.004589
     4  H   -0.000145  -0.001270   0.000746   0.001419   0.001286   0.000250
     5  H    0.000086   0.002253   0.000156  -0.002351   0.000854  -0.001475
     6  H   -0.099767  -0.000958   0.000147   0.001085  -0.001799   0.001405
     7  H    0.588730  -0.000081  -0.000108  -0.000959   0.000824  -0.001742
     8  H   -0.000081   0.638257  -0.100063   0.000092  -0.001976  -0.000260
     9  H   -0.000108  -0.100063   0.620184   0.000175   0.002732  -0.000071
    10  O   -0.000959   0.000092   0.000175   7.540214  -0.039895   0.327137
    11  O    0.000824  -0.001976   0.002732  -0.039895   7.634562   0.000839
    12  H   -0.001742  -0.000260  -0.000071   0.327137   0.000839   0.631806
    13  H    0.001082   0.000029   0.000030   0.330927   0.001460  -0.092398
    14  H    0.000126  -0.000167   0.000249  -0.001195   0.359820  -0.000159
    15  H    0.000035  -0.002303   0.000715   0.002299   0.321641   0.000236
    16  Na  -0.001511  -0.007201   0.016002   0.032005  -0.002714  -0.000727
              13         14         15         16
     1  O   -0.000010  -0.002661  -0.000392   0.005876
     2  O    0.005405   0.000956   0.000803  -0.001926
     3  O    0.002907   0.001106   0.000577   0.010680
     4  H   -0.000498  -0.000405   0.000000  -0.005488
     5  H    0.001371  -0.001141   0.000220  -0.012685
     6  H   -0.000466  -0.000519  -0.000065  -0.015305
     7  H    0.001082   0.000126   0.000035  -0.001511
     8  H    0.000029  -0.000167  -0.002303  -0.007201
     9  H    0.000030   0.000249   0.000715   0.016002
    10  O    0.330927  -0.001195   0.002299   0.032005
    11  O    0.001460   0.359820   0.321641  -0.002714
    12  H   -0.092398  -0.000159   0.000236  -0.000727
    13  H    0.596668   0.001198  -0.000267   0.003509
    14  H    0.001198   0.614183  -0.108117  -0.017481
    15  H   -0.000267  -0.108117   0.599066   0.017481
    16  Na   0.003509  -0.017481   0.017481  10.325060
 Mulliken charges:
               1
     1  O   -0.173640
     2  O   -0.247500
     3  O   -0.250817
     4  H    0.145851
     5  H    0.164504
     6  H    0.139625
     7  H    0.148968
     8  H    0.129696
     9  H    0.130249
    10  O   -0.178574
    11  O   -0.277522
    12  H    0.143405
    13  H    0.149053
    14  H    0.154207
    15  H    0.168071
    16  Na   0.654422
 Sum of Mulliken charges =   1.00000
 Mulliken charges with hydrogens summed into heavy atoms:
               1
     1  O    0.086305
     2  O    0.062856
     3  O    0.037777
    10  O    0.113884
    11  O    0.044756
    16  Na   0.654422
 APT charges:
               1
     1  O   -0.549169
     2  O   -0.548891
     3  O   -0.558954
     4  H    0.290770
     5  H    0.282763
     6  H    0.287049
     7  H    0.296748
     8  H    0.280255
     9  H    0.287472
    10  O   -0.539980
    11  O   -0.547204
    12  H    0.275736
    13  H    0.289164
    14  H    0.278522
    15  H    0.293350
    16  Na   0.882370
 Sum of APT charges =   1.00000
 APT charges with hydrogens summed into heavy atoms:
               1
     1  O    0.018558
     2  O    0.024642
     3  O    0.024842
    10  O    0.024919
    11  O    0.024668
    16  Na   0.882370
 Electronic spatial extent (au):  <R**2>=           1191.2414
 Charge=              1.0000 electrons
 Dipole moment (field-independent basis, Debye):
    X=             -1.6422    Y=             -0.7395    Z=              0.1160  Tot=              1.8047
 Quadrupole moment (field-independent basis, Debye-Ang):
   XX=             -9.9642   YY=            -19.1734   ZZ=            -21.5750
   XY=             -7.7658   XZ=              1.1644   YZ=              6.7657
 Traceless Quadrupole moment (field-independent basis, Debye-Ang):
   XX=              6.9400   YY=             -2.2692   ZZ=             -4.6708
   XY=             -7.7658   XZ=              1.1644   YZ=              6.7657
 Octapole moment (field-independent basis, Debye-Ang**2):
  XXX=              1.2093  YYY=             -1.8615  ZZZ=             15.4960  XYY=             -2.3925
  XXY=             -1.2142  XXZ=            -11.3142  XZZ=            -16.2045  YZZ=             -9.4609
  YYZ=             -8.6384  XYZ=             11.2985
 Hexadecapole moment (field-independent basis, Debye-Ang**3):
 XXXX=           -318.0775 YYYY=           -365.6110 ZZZZ=           -189.5101 XXXY=            -13.5116
 XXXZ=             39.8264 YYYX=            -71.2275 YYYZ=             32.7780 ZZZX=            -21.8485
 ZZZY=              4.5687 XXYY=            -76.8037 XXZZ=           -112.9512 YYZZ=            -68.3941
 XXYZ=             36.5514 YYXZ=             17.7987 ZZXY=             -6.0421
 N-N= 2.985995180322D+02 E-N=-1.880549197148D+03  KE= 5.414366438691D+02
  Exact polarizability:  47.225  -0.132  47.497   0.488   0.936  45.722
 Approx polarizability:  55.493  -1.983  56.370   0.934   2.866  56.348
 Calling FoFJK, ICntrl=    100127 FMM=F ISym2X=0 I1Cent= 0 IOpClX= 0 NMat=1 NMatS=1 NMatT=0.
 ***** Axes restored to original set *****
 -------------------------------------------------------------------
 Center     Atomic                   Forces (Hartrees/Bohr)
 Number     Number              X              Y              Z
 -------------------------------------------------------------------
      1        8          -0.009386158    0.001863825   -0.009458155
      2        8          -0.003229809    0.012610030    0.003975502
      3        8           0.010520015    0.003209451   -0.003387824
      4        1          -0.003120048   -0.009271180    0.004484080
      5        1           0.006826376   -0.002008180   -0.006761831
      6        1          -0.002606954    0.000288868    0.008961335
      7        1          -0.007113479   -0.002850200   -0.004776206
      8        1           0.009868468    0.000400901   -0.001168610
      9        1          -0.001196748   -0.000724773    0.009495192
     10        8           0.005517433   -0.003085562    0.010764389
     11        8          -0.008272642   -0.008344469    0.002004724
     12        1          -0.010838082    0.000718752   -0.000591290
     13        1           0.002813946    0.000917489   -0.009131949
     14        1           0.007321854   -0.000998418   -0.007593338
     15        1           0.002910470    0.007635634    0.005415668
     16       11          -0.000014645   -0.000362168   -0.002231687
 -------------------------------------------------------------------
 Cartesian Forces:  Max     0.012610030 RMS     0.006110978

 GradGradGradGradGradGradGradGradGradGradGradGradGradGradGradGradGradGrad
 Berny optimization.
 Search for a local minimum.
 Step number   1 out of a maximum of  500
 All quantities printed in internal units (Hartrees-Bohrs-Radians)
 Second derivative matrix not updated -- analytic derivatives used.
 ITU=  0
     Eigenvalues ---   -0.00879  -0.00689  -0.00648  -0.00590  -0.00560
     Eigenvalues ---   -0.00529  -0.00353  -0.00324  -0.00288  -0.00270
     Eigenvalues ---   -0.00263  -0.00207  -0.00158  -0.00112  -0.00091
     Eigenvalues ---    0.00068   0.00174   0.00209   0.00329   0.00431
     Eigenvalues ---    0.00452   0.00513   0.00547   0.00687   0.02203
     Eigenvalues ---    0.02639   0.03589   0.15390   0.15614   0.15883
     Eigenvalues ---    0.16010   0.16238   0.87922   0.90701   0.92106
     Eigenvalues ---    0.95078   0.95765   1.10733   1.13851   1.16621
     Eigenvalues ---    1.24283   1.27602
 RFO step:  Lambda=-1.42157200D-02 EMin=-8.79433182D-03
 Linear search not attempted -- first point.
 Maximum step size (   0.100) exceeded in Quadratic search.
    -- Step size scaled by   0.136
 B after Tr=     0.001426   -0.001012    0.001183
         Rot=    1.000000    0.000150    0.000199    0.000364 Ang=   0.05 deg.
 Variable       Old X    -DE/DX   Delta X   Delta X   Delta X     New X
                                 (Linear)    (Quad)   (Total)
    X1        2.24148  -0.00939   0.00000  -0.00158  -0.00314   2.23834
    Y1       -2.19643   0.00186   0.00000   0.01052   0.00893  -2.18750
    Z1        3.51083  -0.00946   0.00000  -0.01635  -0.01362   3.49720
    X2        0.92304  -0.00323   0.00000   0.01553   0.01532   0.93836
    Y2       -3.68788   0.01261   0.00000   0.01672   0.01424  -3.67363
    Z2       -2.62388   0.00398   0.00000   0.01322   0.01588  -2.60800
    X3       -4.23968   0.01052   0.00000  -0.00340  -0.00312  -4.24280
    Y3       -0.97151   0.00321   0.00000   0.02580   0.02822  -0.94329
    Z3        1.14803  -0.00339   0.00000  -0.00316  -0.00338   1.14465
    X4        0.57157  -0.00312   0.00000   0.02137   0.01968   0.59124
    Y4       -5.24503  -0.00927   0.00000   0.00898   0.00701  -5.23802
    Z4       -1.77538   0.00448   0.00000   0.00674   0.00973  -1.76565
    X5        2.46885   0.00683   0.00000  -0.00348  -0.00355   2.46530
    Y5       -3.99214  -0.00201   0.00000   0.01377   0.00990  -3.98224
    Z5       -3.51017  -0.00676   0.00000  -0.02311  -0.01975  -3.52992
    X6       -4.58928  -0.00261   0.00000  -0.01114  -0.01144  -4.60072
    Y6       -0.79574   0.00029   0.00000   0.00831   0.01153  -0.78422
    Z6        2.91490   0.00896   0.00000  -0.00092  -0.00133   2.91357
    X7       -5.84783  -0.00711   0.00000   0.00702   0.00731  -5.84052
    Y7       -1.32865  -0.00285   0.00000  -0.02498  -0.02162  -1.35026
    Z7        0.40157  -0.00478   0.00000  -0.00668  -0.00742   0.39415
    X8        3.94545   0.00987   0.00000   0.00618   0.00506   3.95051
    Y8       -1.83020   0.00040   0.00000   0.00220  -0.00078  -1.83098
    Z8        3.02836  -0.00117   0.00000  -0.00384  -0.00054   3.02782
    X9        2.23619  -0.00120   0.00000  -0.01377  -0.01592   2.22026
    Y9       -2.03769  -0.00072   0.00000   0.01152   0.01048  -2.02721
    Z9        5.31230   0.00950   0.00000  -0.01410  -0.01143   5.30088
   X10       -1.64852   0.00552   0.00000  -0.01202  -0.00739  -1.65592
   Y10        2.55415  -0.00309   0.00000  -0.02523  -0.02606   2.52809
   Z10       -3.41379   0.01076   0.00000   0.00719   0.00695  -3.40684
   X11        3.57222  -0.00827   0.00000   0.01264   0.01615   3.58838
   Y11        2.76930  -0.00834   0.00000  -0.03761  -0.04131   2.72799
   Z11       -0.27598   0.00200   0.00000   0.02592   0.02771  -0.24827
   X12       -3.38027  -0.01084   0.00000  -0.02513  -0.02091  -3.40117
   Y12        2.08305   0.00072   0.00000   0.01827   0.01878   2.10183
   Z12       -3.19078  -0.00059   0.00000   0.01263   0.01183  -3.17896
   X13       -1.36979   0.00281   0.00000  -0.02325  -0.01800  -1.38779
   Y13        2.42886   0.00092   0.00000  -0.01215  -0.01370   2.41516
   Z13       -5.19580  -0.00913   0.00000   0.00226   0.00217  -5.19363
   X14        4.80433   0.00732   0.00000   0.01057   0.01398   4.81831
   Y14        1.97939  -0.00100   0.00000   0.00885   0.00392   1.98331
   Z14       -1.33798  -0.00759   0.00000  -0.01372  -0.01122  -1.34920
   X15        4.52691   0.00291   0.00000   0.00081   0.00477   4.53169
   Y15        3.90315   0.00764   0.00000  -0.00332  -0.00740   3.89575
   Z15        0.75961   0.00542   0.00000   0.00288   0.00470   0.76431
   X16       -0.00000  -0.00001   0.00000  -0.00024   0.00119   0.00119
   Y16        0.00000  -0.00036   0.00000  -0.00113  -0.00215  -0.00215
   Z16       -0.00000  -0.00223   0.00000  -0.01145  -0.01027  -0.01027
         Item               Value     Threshold  Converged?
 Maximum Force            0.012610     0.000450     NO 
 RMS     Force            0.006111     0.000300     NO 
 Maximum Displacement     0.041307     0.001800     NO 
 RMS     Displacement     0.014206     0.001200     NO 
 Predicted change in Energy=-1.168441D-03
 GradGradGradGradGradGradGradGradGradGradGradGradGradGradGradGradGradGrad

                          Input orientation:                          
 ---------------------------------------------------------------------
 Center     Atomic      Atomic             Coordinates (Angstroms)
 Number     Number       Type             X           Y           Z
 ---------------------------------------------------------------------
      1          8           0        1.184481   -1.157575    1.850641
      2          8           0        0.496557   -1.944002   -1.380096
      3          8           0       -2.245191   -0.499166    0.605721
      4          1           0        0.312873   -2.771840   -0.934343
      5          1           0        1.304583   -2.107310   -1.867952
      6          1           0       -2.434595   -0.414991    1.541794
      7          1           0       -3.090673   -0.714529    0.208575
      8          1           0        2.090520   -0.968914    1.602255
      9          1           0        1.174913   -1.072753    2.805104
     10          8           0       -0.876273    1.337810   -1.802821
     11          8           0        1.898889    1.443591   -0.131378
     12          1           0       -1.799823    1.112240   -1.682232
     13          1           0       -0.734386    1.278048   -2.748352
     14          1           0        2.549740    1.049523   -0.713968
     15          1           0        2.398065    2.061544    0.404455
     16         11           0        0.000630   -0.001137   -0.005433
 ---------------------------------------------------------------------
                    Distance matrix (angstroms):
                    1          2          3          4          5
     1  O    0.000000
     2  O    3.395492   0.000000
     3  O    3.707557   3.680788   0.000000
     4  H    3.334919   0.957993   3.752404   0.000000
     5  H    3.839837   0.957903   4.615850   1.515491   0.000000
     6  H    3.707361   4.412139   0.958745   4.385724   5.335893
     7  H    4.601044   4.111410   0.958616   4.137984   5.056686
     8  H    0.958225   3.519365   4.473493   3.583978   3.735770
     9  H    0.958272   4.328411   4.106508   4.196840   4.787961
    10  O    4.880721   3.582408   3.324078   4.365495   4.077895
    11  O    3.347364   3.873192   4.635841   4.574938   3.997222
    12  H    5.151633   3.834744   2.833675   4.484295   4.476307
    13  H    5.546625   3.710654   4.085440   4.559493   4.048845
    14  H    3.648621   3.690594   5.208779   4.433391   3.584368
    15  H    3.731885   4.779619   5.306371   5.431575   4.872256
    16  Na   2.486738   2.431124   2.380180   2.938905   3.099231
                    6          7          8          9         10
     6  H    0.000000
     7  H    1.515795   0.000000
     8  H    4.559293   5.371388   0.000000
     9  H    3.880355   5.006547   1.515244   0.000000
    10  O    4.084988   3.627861   5.071231   5.590273   0.000000
    11  O    5.003290   5.446905   2.976976   3.934343   3.241363
    12  H    3.623495   2.928913   5.500348   5.810287   0.958315
    13  H    4.915530   4.273858   5.653027   6.325548   0.957983
    14  H    5.663644   5.981406   3.106423   4.333367   3.606421
    15  H    5.548096   6.153957   3.273070   4.133162   4.014617
    16  Na   2.914706   3.179761   2.808718   3.228997   2.406728
                   11         12         13         14         15
    11  O    0.000000
    12  H    4.024352   0.000000
    13  H    3.716193   1.516330   0.000000
    14  H    0.958284   4.456474   3.869939   0.000000
    15  H    0.958206   4.783064   4.512904   1.515936   0.000000
    16  Na   2.388825   2.700536   3.114509   2.846729   3.189099
                   16
    16  Na   0.000000
 Stoichiometry    H10NaO5(1+)
 Framework group  C1[X(H10NaO5)]
 Deg. of freedom    42
 Full point group                 C1      NOp   1
 Largest Abelian subgroup         C1      NOp   1
 Largest concise Abelian subgroup C1      NOp   1
                         Standard orientation:                         
 ---------------------------------------------------------------------
 Center     Atomic      Atomic             Coordinates (Angstroms)
 Number     Number       Type             X           Y           Z
 ---------------------------------------------------------------------
      1          8           0       -2.133972   -1.197604   -0.418595
      2          8           0       -0.087327   -0.425233    2.178336
      3          8           0        1.502969   -1.768893   -0.857078
      4          1           0       -0.333342   -1.327643    2.385420
      5          1           0       -0.550216    0.105591    2.827595
      6          1           0        1.204876   -2.283855   -1.608840
      7          1           0        2.365957   -2.129378   -0.646728
      8          1           0       -2.726221   -0.494139   -0.149199
      9          1           0       -2.591634   -1.633701   -1.138769
     10          8           0        1.963955    1.433747   -0.095446
     11          8           0       -1.181234    2.004146   -0.632910
     12          1           0        2.627831    0.761488   -0.255770
     13          1           0        2.311702    1.947559    0.634486
     14          1           0       -1.513154    2.344337    0.199200
     15          1           0       -1.740336    2.407695   -1.298276
     16         11           0        0.039037   -0.006114   -0.213052
 ---------------------------------------------------------------------
 Rotational constants (GHZ):           1.5722881           1.4387811           1.1590373
 Standard basis: Aug-CC-pVDZ (5D, 7F)
 There are   244 symmetry adapted cartesian basis functions of A   symmetry.
 There are   232 symmetry adapted basis functions of A   symmetry.
   232 basis functions,   406 primitive gaussians,   244 cartesian basis functions
    30 alpha electrons       30 beta electrons
       nuclear repulsion energy       299.1716918089 Hartrees.
 NAtoms=   16 NActive=   16 NUniq=   16 SFac= 1.00D+00 NAtFMM=   60 NAOKFM=F Big=F
 Integral buffers will be    131072 words long.
 Raffenetti 2 integral format.
 Two-electron integral symmetry is turned on.
 Nuclear repulsion after empirical dispersion term =      299.1636717356 Hartrees.
 One-electron integrals computed using PRISM.
 NBasis=   232 RedAO= T EigKep=  2.88D-04  NBF=   232
 NBsUse=   232 1.00D-06 EigRej= -1.00D+00 NBFU=   232
 Initial guess from the checkpoint file:  "sim005_type3_coord-5_0-5-0_10C_b1_id81779_step2120.chk"
 B after Tr=     0.000000   -0.000000   -0.000000
         Rot=    0.999871    0.004161    0.002048   -0.015402 Ang=   1.84 deg.
 ExpMin= 6.16D-03 ExpMax= 3.17D+04 ExpMxC= 1.08D+03 IAcc=3 IRadAn=         5 AccDes= 0.00D+00
 Harris functional with IExCor=  402 and IRadAn=       5 diagonalized for initial guess.
 HarFok:  IExCor=  402 AccDes= 0.00D+00 IRadAn=         5 IDoV= 1 UseB2=F ITyADJ=14
 ICtDFT=  3500011 ScaDFX=  1.000000  1.000000  1.000000  1.000000
 FoFCou: FMM=F IPFlag=           0 FMFlag=      100000 FMFlg1=           0
         NFxFlg=           0 DoJE=T BraDBF=F KetDBF=T FulRan=T
         wScrn=  0.000000 ICntrl=       500 IOpCl=  0 I1Cent=   200000004 NGrid=           0
         NMat0=    1 NMatS0=      1 NMatT0=    0 NMatD0=    1 NMtDS0=    0 NMtDT0=    0
 Petite list used in FoFCou.
 Requested convergence on RMS density matrix=1.00D-08 within 500 cycles.
 Requested convergence on MAX density matrix=1.00D-06.
 Requested convergence on             energy=1.00D-06.
 No special actions if energy rises.
 SCF Done:  E(RB3LYP) =  -544.449114857     A.U. after    8 cycles
            NFock=  8  Conv=0.84D-08     -V/T= 2.0056
 DoSCS=F DFT=T ScalE2(SS,OS)=  1.000000  1.000000
 Range of M.O.s used for correlation:     1   232
 NBasis=   232 NAE=    30 NBE=    30 NFC=     0 NFV=     0
 NROrb=    232 NOA=    30 NOB=    30 NVA=   202 NVB=   202

 **** Warning!!: The largest alpha MO coefficient is  0.13508454D+02

 Symmetrizing basis deriv contribution to polar:
 IMax=3 JMax=2 DiffMx= 0.00D+00
 G2DrvN: will do    17 centers at a time, making    1 passes.
 Calling FoFCou, ICntrl=  3107 FMM=F I1Cent=   0 AccDes= 1.00D-11.
 End of G2Drv F.D. properties file   721 does not exist.
 End of G2Drv F.D. properties file   722 does not exist.
 End of G2Drv F.D. properties file   788 does not exist.
          IDoAtm=1111111111111111
          Differentiating once with respect to electric field.
                with respect to dipole field.
          Differentiating once with respect to nuclear coordinates.
 Keep R1 ints in memory in canonical form, NReq=408195286.
          There are    51 degrees of freedom in the 1st order CPHF.  IDoFFX=6 NUNeed=     3.
     48 vectors produced by pass  0 Test12= 1.19D-14 1.96D-09 XBig12= 2.21D+01 9.59D-01.
 AX will form    48 AO Fock derivatives at one time.
     48 vectors produced by pass  1 Test12= 1.19D-14 1.96D-09 XBig12= 2.18D+00 1.83D-01.
     48 vectors produced by pass  2 Test12= 1.19D-14 1.96D-09 XBig12= 2.74D-02 2.32D-02.
     48 vectors produced by pass  3 Test12= 1.19D-14 1.96D-09 XBig12= 7.68D-05 1.26D-03.
     48 vectors produced by pass  4 Test12= 1.19D-14 1.96D-09 XBig12= 1.01D-07 3.21D-05.
     20 vectors produced by pass  5 Test12= 1.19D-14 1.96D-09 XBig12= 9.12D-11 8.90D-07.
      3 vectors produced by pass  6 Test12= 1.19D-14 1.96D-09 XBig12= 6.12D-14 3.67D-08.
 InvSVY:  IOpt=1 It=  1 EMax= 2.66D-15
 Solved reduced A of dimension   263 with    51 vectors.
 Isotropic polarizability for W=    0.000000       46.84 Bohr**3.
 End of Minotr F.D. properties file   721 does not exist.
 End of Minotr F.D. properties file   722 does not exist.
 End of Minotr F.D. properties file   788 does not exist.
 Calling FoFJK, ICntrl=    100127 FMM=F ISym2X=0 I1Cent= 0 IOpClX= 0 NMat=1 NMatS=1 NMatT=0.
 ***** Axes restored to original set *****
 -------------------------------------------------------------------
 Center     Atomic                   Forces (Hartrees/Bohr)
 Number     Number              X              Y              Z
 -------------------------------------------------------------------
      1        8          -0.008210831    0.002012261   -0.008187005
      2        8          -0.002321664    0.010894582    0.003744513
      3        8           0.008739284    0.003019022   -0.002948368
      4        1          -0.002684944   -0.008036968    0.003839942
      5        1           0.005504521   -0.001749698   -0.006065961
      6        1          -0.002399763    0.000244427    0.007794086
      7        1          -0.005591139   -0.002670272   -0.004069969
      8        1           0.008552717    0.000295401   -0.000944916
      9        1          -0.001188770   -0.000846765    0.008127094
     10        8           0.004509072   -0.003331121    0.009396789
     11        8          -0.006319644   -0.007939879    0.001907211
     12        1          -0.009398945    0.001162844   -0.000650605
     13        1           0.002432729    0.000969960   -0.007803386
     14        1           0.006196823   -0.000249161   -0.006627379
     15        1           0.002101869    0.006659044    0.004446974
     16       11           0.000078686   -0.000433677   -0.001959021
 -------------------------------------------------------------------
 Cartesian Forces:  Max     0.010894582 RMS     0.005264821

 GradGradGradGradGradGradGradGradGradGradGradGradGradGradGradGradGradGrad
 Berny optimization.
 Search for a local minimum.
 Step number   2 out of a maximum of  500
 All quantities printed in internal units (Hartrees-Bohrs-Radians)
 Second derivative matrix not updated -- analytic derivatives used.
 DE= -1.16D-03 DEPred=-1.17D-03 R= 9.97D-01
 TightC=F SS=  1.41D+00  RLast= 9.84D-02 DXNew= 1.6818D-01 2.9527D-01
 Trust test= 9.97D-01 RLast= 9.84D-02 DXMaxT set to 1.68D-01
 ITU=  1  0
 Linear search step of   0.197 exceeds DXMaxT=   0.168 but not scaled.
 Quartic linear search produced a step of  2.00000.
 B after Tr=    -0.000000   -0.000000   -0.000000
         Rot=    1.000000    0.000000    0.000000   -0.000000 Ang=   0.00 deg.
 Variable       Old X    -DE/DX   Delta X   Delta X   Delta X     New X
                                 (Linear)    (Quad)   (Total)
    X1        2.23834  -0.00821  -0.00627   0.00000  -0.00627   2.23207
    Y1       -2.18750   0.00201   0.01786   0.00000   0.01786  -2.16964
    Z1        3.49720  -0.00819  -0.02725   0.00000  -0.02725   3.46996
    X2        0.93836  -0.00232   0.03064   0.00000   0.03064   0.96900
    Y2       -3.67363   0.01089   0.02849   0.00000   0.02849  -3.64514
    Z2       -2.60800   0.00374   0.03176   0.00000   0.03176  -2.57624
    X3       -4.24280   0.00874  -0.00624   0.00000  -0.00624  -4.24904
    Y3       -0.94329   0.00302   0.05644   0.00000   0.05644  -0.88685
    Z3        1.14465  -0.00295  -0.00676   0.00000  -0.00676   1.13788
    X4        0.59124  -0.00268   0.03936   0.00000   0.03936   0.63060
    Y4       -5.23802  -0.00804   0.01402   0.00000   0.01402  -5.22400
    Z4       -1.76565   0.00384   0.01945   0.00000   0.01945  -1.74620
    X5        2.46530   0.00550  -0.00710   0.00000  -0.00710   2.45821
    Y5       -3.98224  -0.00175   0.01980   0.00000   0.01980  -3.96243
    Z5       -3.52992  -0.00607  -0.03950   0.00000  -0.03950  -3.56942
    X6       -4.60072  -0.00240  -0.02288   0.00000  -0.02288  -4.62360
    Y6       -0.78422   0.00024   0.02305   0.00000   0.02305  -0.76117
    Z6        2.91357   0.00779  -0.00267   0.00000  -0.00267   2.91090
    X7       -5.84052  -0.00559   0.01462   0.00000   0.01462  -5.82591
    Y7       -1.35026  -0.00267  -0.04323   0.00000  -0.04323  -1.39350
    Z7        0.39415  -0.00407  -0.01483   0.00000  -0.01483   0.37932
    X8        3.95051   0.00855   0.01013   0.00000   0.01013   3.96064
    Y8       -1.83098   0.00030  -0.00157   0.00000  -0.00157  -1.83255
    Z8        3.02782  -0.00094  -0.00108   0.00000  -0.00108   3.02674
    X9        2.22026  -0.00119  -0.03185   0.00000  -0.03185   2.18842
    Y9       -2.02721  -0.00085   0.02096   0.00000   0.02096  -2.00624
    Z9        5.30088   0.00813  -0.02285   0.00000  -0.02285   5.27803
   X10       -1.65592   0.00451  -0.01479   0.00000  -0.01479  -1.67070
   Y10        2.52809  -0.00333  -0.05212   0.00000  -0.05212   2.47598
   Z10       -3.40684   0.00940   0.01390   0.00000   0.01390  -3.39293
   X11        3.58838  -0.00632   0.03231   0.00000   0.03231   3.62069
   Y11        2.72799  -0.00794  -0.08261   0.00000  -0.08261   2.64538
   Z11       -0.24827   0.00191   0.05541   0.00000   0.05541  -0.19285
   X12       -3.40117  -0.00940  -0.04181   0.00000  -0.04181  -3.44298
   Y12        2.10183   0.00116   0.03757   0.00000   0.03757   2.13940
   Z12       -3.17896  -0.00065   0.02365   0.00000   0.02365  -3.15531
   X13       -1.38779   0.00243  -0.03600   0.00000  -0.03600  -1.42379
   Y13        2.41516   0.00097  -0.02741   0.00000  -0.02741   2.38775
   Z13       -5.19363  -0.00780   0.00434   0.00000   0.00434  -5.18929
   X14        4.81831   0.00620   0.02797   0.00000   0.02797   4.84628
   Y14        1.98331  -0.00025   0.00784   0.00000   0.00784   1.99115
   Z14       -1.34920  -0.00663  -0.02244   0.00000  -0.02244  -1.37165
   X15        4.53169   0.00210   0.00954   0.00000   0.00954   4.54123
   Y15        3.89575   0.00666  -0.01480   0.00000  -0.01480   3.88095
   Z15        0.76431   0.00445   0.00939   0.00000   0.00939   0.77370
   X16        0.00119   0.00008   0.00238   0.00000   0.00238   0.00357
   Y16       -0.00215  -0.00043  -0.00430   0.00000  -0.00430  -0.00644
   Z16       -0.01027  -0.00196  -0.02054   0.00000  -0.02054  -0.03080
         Item               Value     Threshold  Converged?
 Maximum Force            0.010895     0.000450     NO 
 RMS     Force            0.005265     0.000300     NO 
 Maximum Displacement     0.082615     0.001800     NO 
 RMS     Displacement     0.028413     0.001200     NO 
 Predicted change in Energy=-2.148904D-03
 GradGradGradGradGradGradGradGradGradGradGradGradGradGradGradGradGradGrad

                          Input orientation:                          
 ---------------------------------------------------------------------
 Center     Atomic      Atomic             Coordinates (Angstroms)
 Number     Number       Type             X           Y           Z
 ---------------------------------------------------------------------
      1          8           0        1.181163   -1.148125    1.836223
      2          8           0        0.512771   -1.928926   -1.363287
      3          8           0       -2.248494   -0.469299    0.602142
      4          1           0        0.333699   -2.764420   -0.924048
      5          1           0        1.300828   -2.096830   -1.888855
      6          1           0       -2.446705   -0.402792    1.540382
      7          1           0       -3.082938   -0.737406    0.200725
      8          1           0        2.095880   -0.969743    1.601684
      9          1           0        1.158060   -1.061659    2.793011
     10          8           0       -0.884099    1.310230   -1.795463
     11          8           0        1.915987    1.399873   -0.102054
     12          1           0       -1.821948    1.132121   -1.669717
     13          1           0       -0.753439    1.263545   -2.746055
     14          1           0        2.564540    1.053670   -0.725844
     15          1           0        2.403114    2.053712    0.409425
     16         11           0        0.001891   -0.003410   -0.016300
 ---------------------------------------------------------------------
                    Distance matrix (angstroms):
                    1          2          3          4          5
     1  O    0.000000
     2  O    3.360545   0.000000
     3  O    3.707601   3.690258   0.000000
     4  H    3.309033   0.960754   3.776845   0.000000
     5  H    3.845850   0.962002   4.631588   1.520483   0.000000
     6  H    3.715436   4.418017   0.961252   4.402425   5.354758
     7  H    4.585422   4.098167   0.964009   4.128839   5.042993
     8  H    0.961008   3.495329   4.485880   3.564473   3.753172
     9  H    0.960965   4.294574   4.093337   4.170791   4.797065
    10  O    4.847469   3.553893   3.282804   4.341102   4.048541
    11  O    3.284689   3.826308   4.618722   4.529972   3.974671
    12  H    5.148768   3.861971   2.812086   4.515071   4.497319
    13  H    5.527758   3.702324   4.055657   4.552591   4.030747
    14  H    3.650455   3.675864   5.219988   4.426483   3.588205
    15  H    3.712234   4.751559   5.295298   5.410640   4.870742
    16  Na   2.476468   2.404783   2.379864   2.925282   3.094528
                    6          7          8          9         10
     6  H    0.000000
     7  H    1.520342   0.000000
     8  H    4.578239   5.369993   0.000000
     9  H    3.872663   4.981079   1.518952   0.000000
    10  O    4.062517   3.607280   5.061538   5.554310   0.000000
    11  O    4.998027   5.445079   2.924067   3.874919   3.273553
    12  H    3.612619   2.929809   5.519898   5.797332   0.962858
    13  H    4.900752   4.256040   5.657653   6.304098   0.960665
    14  H    5.689432   5.996707   3.119492   4.339947   3.619809
    15  H    5.552857   6.158788   3.264530   4.115480   4.027414
    16  Na   2.928888   3.178367   2.817173   3.216963   2.382446
                   11         12         13         14         15
    11  O    0.000000
    12  H    4.062193   0.000000
    13  H    3.759675   1.522329   0.000000
    14  H    0.964153   4.487574   3.890281   0.000000
    15  H    0.962502   4.798261   4.532687   1.521504   0.000000
    16  Na   2.374936   2.711016   3.102782   2.861476   3.190434
                   16
    16  Na   0.000000
 Stoichiometry    H10NaO5(1+)
 Framework group  C1[X(H10NaO5)]
 Deg. of freedom    42
 Full point group                 C1      NOp   1
 Largest Abelian subgroup         C1      NOp   1
 Largest concise Abelian subgroup C1      NOp   1
                         Standard orientation:                         
 ---------------------------------------------------------------------
 Center     Atomic      Atomic             Coordinates (Angstroms)
 Number     Number       Type             X           Y           Z
 ---------------------------------------------------------------------
      1          8           0       -2.059221   -1.285766   -0.409390
      2          8           0       -0.102159   -0.376561    2.166753
      3          8           0        1.601913   -1.692027   -0.830528
      4          1           0       -0.311288   -1.284725    2.400312
      5          1           0       -0.559665    0.153549    2.826388
      6          1           0        1.336984   -2.251776   -1.565714
      7          1           0        2.461306   -2.038618   -0.564764
      8          1           0       -2.700767   -0.615635   -0.158630
      9          1           0       -2.479834   -1.762068   -1.130276
     10          8           0        1.899827    1.493839   -0.096831
     11          8           0       -1.298060    1.899088   -0.667303
     12          1           0        2.613195    0.873223   -0.278593
     13          1           0        2.232350    2.043527    0.617415
     14          1           0       -1.621580    2.294903    0.150167
     15          1           0       -1.840549    2.297214   -1.355496
     16         11           0        0.048314   -0.001652   -0.203856
 ---------------------------------------------------------------------
 Rotational constants (GHZ):           1.6039159           1.4395307           1.1707957
 Standard basis: Aug-CC-pVDZ (5D, 7F)
 There are   244 symmetry adapted cartesian basis functions of A   symmetry.
 There are   232 symmetry adapted basis functions of A   symmetry.
   232 basis functions,   406 primitive gaussians,   244 cartesian basis functions
    30 alpha electrons       30 beta electrons
       nuclear repulsion energy       300.2497207481 Hartrees.
 NAtoms=   16 NActive=   16 NUniq=   16 SFac= 1.00D+00 NAtFMM=   60 NAOKFM=F Big=F
 Integral buffers will be    131072 words long.
 Raffenetti 2 integral format.
 Two-electron integral symmetry is turned on.
 Nuclear repulsion after empirical dispersion term =      300.2417150992 Hartrees.
 One-electron integrals computed using PRISM.
 NBasis=   232 RedAO= T EigKep=  2.78D-04  NBF=   232
 NBsUse=   232 1.00D-06 EigRej= -1.00D+00 NBFU=   232
 Initial guess from the checkpoint file:  "sim005_type3_coord-5_0-5-0_10C_b1_id81779_step2120.chk"
 B after Tr=     0.000000   -0.000000    0.000000
         Rot=    0.999667    0.008549    0.004104   -0.024001 Ang=   2.96 deg.
 ExpMin= 6.16D-03 ExpMax= 3.17D+04 ExpMxC= 1.08D+03 IAcc=3 IRadAn=         5 AccDes= 0.00D+00
 Harris functional with IExCor=  402 and IRadAn=       5 diagonalized for initial guess.
 HarFok:  IExCor=  402 AccDes= 0.00D+00 IRadAn=         5 IDoV= 1 UseB2=F ITyADJ=14
 ICtDFT=  3500011 ScaDFX=  1.000000  1.000000  1.000000  1.000000
 FoFCou: FMM=F IPFlag=           0 FMFlag=      100000 FMFlg1=           0
         NFxFlg=           0 DoJE=T BraDBF=F KetDBF=T FulRan=T
         wScrn=  0.000000 ICntrl=       500 IOpCl=  0 I1Cent=   200000004 NGrid=           0
         NMat0=    1 NMatS0=      1 NMatT0=    0 NMatD0=    1 NMtDS0=    0 NMtDT0=    0
 Petite list used in FoFCou.
 Requested convergence on RMS density matrix=1.00D-08 within 500 cycles.
 Requested convergence on MAX density matrix=1.00D-06.
 Requested convergence on             energy=1.00D-06.
 No special actions if energy rises.
 SCF Done:  E(RB3LYP) =  -544.451203389     A.U. after    9 cycles
            NFock=  9  Conv=0.27D-08     -V/T= 2.0057
 DoSCS=F DFT=T ScalE2(SS,OS)=  1.000000  1.000000
 Range of M.O.s used for correlation:     1   232
 NBasis=   232 NAE=    30 NBE=    30 NFC=     0 NFV=     0
 NROrb=    232 NOA=    30 NOB=    30 NVA=   202 NVB=   202

 **** Warning!!: The largest alpha MO coefficient is  0.15293920D+02

 Symmetrizing basis deriv contribution to polar:
 IMax=3 JMax=2 DiffMx= 0.00D+00
 G2DrvN: will do    17 centers at a time, making    1 passes.
 Calling FoFCou, ICntrl=  3107 FMM=F I1Cent=   0 AccDes= 1.00D-11.
 End of G2Drv F.D. properties file   721 does not exist.
 End of G2Drv F.D. properties file   722 does not exist.
 End of G2Drv F.D. properties file   788 does not exist.
          IDoAtm=1111111111111111
          Differentiating once with respect to electric field.
                with respect to dipole field.
          Differentiating once with respect to nuclear coordinates.
 Keep R1 ints in memory in canonical form, NReq=408195286.
          There are    51 degrees of freedom in the 1st order CPHF.  IDoFFX=6 NUNeed=     3.
     48 vectors produced by pass  0 Test12= 1.19D-14 1.96D-09 XBig12= 2.22D+01 9.43D-01.
 AX will form    48 AO Fock derivatives at one time.
     48 vectors produced by pass  1 Test12= 1.19D-14 1.96D-09 XBig12= 2.21D+00 1.77D-01.
     48 vectors produced by pass  2 Test12= 1.19D-14 1.96D-09 XBig12= 2.73D-02 2.16D-02.
     48 vectors produced by pass  3 Test12= 1.19D-14 1.96D-09 XBig12= 7.16D-05 1.19D-03.
     48 vectors produced by pass  4 Test12= 1.19D-14 1.96D-09 XBig12= 9.43D-08 2.88D-05.
     22 vectors produced by pass  5 Test12= 1.19D-14 1.96D-09 XBig12= 8.48D-11 7.84D-07.
      3 vectors produced by pass  6 Test12= 1.19D-14 1.96D-09 XBig12= 5.67D-14 3.27D-08.
 InvSVY:  IOpt=1 It=  1 EMax= 1.78D-15
 Solved reduced A of dimension   265 with    51 vectors.
 Isotropic polarizability for W=    0.000000       46.97 Bohr**3.
 End of Minotr F.D. properties file   721 does not exist.
 End of Minotr F.D. properties file   722 does not exist.
 End of Minotr F.D. properties file   788 does not exist.
 Calling FoFJK, ICntrl=    100127 FMM=F ISym2X=0 I1Cent= 0 IOpClX= 0 NMat=1 NMatS=1 NMatT=0.
 ***** Axes restored to original set *****
 -------------------------------------------------------------------
 Center     Atomic                   Forces (Hartrees/Bohr)
 Number     Number              X              Y              Z
 -------------------------------------------------------------------
      1        8          -0.005670934    0.002317408   -0.005549734
      2        8           0.000604392    0.007094394    0.002298304
      3        8           0.003169741    0.001712795   -0.002727094
      4        1          -0.001847198   -0.005519830    0.002578114
      5        1           0.001805439   -0.000964140   -0.003751584
      6        1          -0.001832090    0.000216231    0.005284832
      7        1          -0.000689303   -0.001435271   -0.001816689
      8        1           0.005663439    0.000083303   -0.000479870
      9        1          -0.001094549   -0.001104057    0.005284423
     10        8           0.000459797   -0.003928157    0.006588424
     11        8           0.000691017   -0.006713689    0.000237028
     12        1          -0.004631710    0.002183655   -0.000944620
     13        1           0.001783935    0.001070400   -0.004970786
     14        1           0.001786966    0.001864144   -0.002771344
     15        1          -0.000411034    0.003706872    0.002067330
     16       11           0.000212090   -0.000584059   -0.001326734
 -------------------------------------------------------------------
 Cartesian Forces:  Max     0.007094394 RMS     0.003223688

 GradGradGradGradGradGradGradGradGradGradGradGradGradGradGradGradGradGrad
 Berny optimization.
 Search for a local minimum.
 Step number   3 out of a maximum of  500
 All quantities printed in internal units (Hartrees-Bohrs-Radians)
 Second derivative matrix not updated -- analytic derivatives used.
 ITU=  0  1  0
 Linear search step of   0.394 exceeds DXMaxT=   0.168 scaled by   0.854
 Quintic linear search produced a step of  1.70872.
 B after Tr=    -0.000000   -0.000000    0.000000
         Rot=    1.000000   -0.000000   -0.000000   -0.000000 Ang=   0.00 deg.
 Variable       Old X    -DE/DX   Delta X   Delta X   Delta X     New X
                                 (Linear)    (Quad)   (Total)
    X1        2.23207  -0.00567  -0.01071   0.00000  -0.01071   2.22136
    Y1       -2.16964   0.00232   0.03051   0.00000   0.03051  -2.13913
    Z1        3.46996  -0.00555  -0.04656   0.00000  -0.04656   3.42340
    X2        0.96900   0.00060   0.05235   0.00000   0.05235   1.02135
    Y2       -3.64514   0.00709   0.04868   0.00000   0.04868  -3.59646
    Z2       -2.57624   0.00230   0.05427   0.00000   0.05427  -2.52196
    X3       -4.24904   0.00317  -0.01066   0.00000  -0.01066  -4.25970
    Y3       -0.88685   0.00171   0.09644   0.00000   0.09644  -0.79040
    Z3        1.13788  -0.00273  -0.01156   0.00000  -0.01156   1.12633
    X4        0.63060  -0.00185   0.06725   0.00000   0.06725   0.69785
    Y4       -5.22400  -0.00552   0.02396   0.00000   0.02396  -5.20004
    Z4       -1.74620   0.00258   0.03324   0.00000   0.03324  -1.71295
    X5        2.45821   0.00181  -0.01212   0.00000  -0.01212   2.44608
    Y5       -3.96243  -0.00096   0.03384   0.00000   0.03384  -3.92860
    Z5       -3.56942  -0.00375  -0.06750   0.00000  -0.06750  -3.63691
    X6       -4.62360  -0.00183  -0.03910   0.00000  -0.03910  -4.66271
    Y6       -0.76117   0.00022   0.03939   0.00000   0.03939  -0.72178
    Z6        2.91090   0.00528  -0.00456   0.00000  -0.00456   2.90634
    X7       -5.82591  -0.00069   0.02498   0.00000   0.02498  -5.80093
    Y7       -1.39350  -0.00144  -0.07387   0.00000  -0.07387  -1.46737
    Z7        0.37932  -0.00182  -0.02535   0.00000  -0.02535   0.35397
    X8        3.96064   0.00566   0.01731   0.00000   0.01731   3.97795
    Y8       -1.83255   0.00008  -0.00268   0.00000  -0.00268  -1.83523
    Z8        3.02674  -0.00048  -0.00184   0.00000  -0.00184   3.02490
    X9        2.18842  -0.00109  -0.05442   0.00000  -0.05442   2.13400
    Y9       -2.00624  -0.00110   0.03582   0.00000   0.03582  -1.97042
    Z9        5.27803   0.00528  -0.03905   0.00000  -0.03905   5.23898
   X10       -1.67070   0.00046  -0.02527   0.00000  -0.02527  -1.69597
   Y10        2.47598  -0.00393  -0.08906   0.00000  -0.08906   2.38692
   Z10       -3.39293   0.00659   0.02376   0.00000   0.02376  -3.36917
   X11        3.62069   0.00069   0.05521   0.00000   0.05521   3.67590
   Y11        2.64538  -0.00671  -0.14117   0.00000  -0.14117   2.50421
   Z11       -0.19285   0.00024   0.09469   0.00000   0.09469  -0.09817
   X12       -3.44298  -0.00463  -0.07144   0.00000  -0.07144  -3.51442
   Y12        2.13940   0.00218   0.06420   0.00000   0.06420   2.20359
   Z12       -3.15531  -0.00094   0.04041   0.00000   0.04041  -3.11490
   X13       -1.42379   0.00178  -0.06152   0.00000  -0.06152  -1.48532
   Y13        2.38775   0.00107  -0.04683   0.00000  -0.04683   2.34092
   Z13       -5.18929  -0.00497   0.00742   0.00000   0.00742  -5.18188
   X14        4.84628   0.00179   0.04779   0.00000   0.04779   4.89407
   Y14        1.99115   0.00186   0.01339   0.00000   0.01339   2.00454
   Z14       -1.37165  -0.00277  -0.03835   0.00000  -0.03835  -1.40999
   X15        4.54123  -0.00041   0.01631   0.00000   0.01631   4.55753
   Y15        3.88095   0.00371  -0.02529   0.00000  -0.02529   3.85566
   Z15        0.77370   0.00207   0.01605   0.00000   0.01605   0.78975
   X16        0.00357   0.00021   0.00407   0.00000   0.00407   0.00764
   Y16       -0.00644  -0.00058  -0.00734   0.00000  -0.00734  -0.01379
   Z16       -0.03080  -0.00133  -0.03509   0.00000  -0.03509  -0.06589
         Item               Value     Threshold  Converged?
 Maximum Force            0.007094     0.000450     NO 
 RMS     Force            0.003224     0.000300     NO 
 Maximum Displacement     0.141166     0.001800     NO 
 RMS     Displacement     0.048549     0.001200     NO 
 Predicted change in Energy=-2.143201D-03
 GradGradGradGradGradGradGradGradGradGradGradGradGradGradGradGradGradGrad

                          Input orientation:                          
 ---------------------------------------------------------------------
 Center     Atomic      Atomic             Coordinates (Angstroms)
 Number     Number       Type             X           Y           Z
 ---------------------------------------------------------------------
      1          8           0        1.175493   -1.131978    1.811586
      2          8           0        0.540475   -1.903166   -1.334566
      3          8           0       -2.254137   -0.418264    0.596027
      4          1           0        0.369285   -2.751742   -0.906457
      5          1           0        1.294412   -2.078923   -1.924572
      6          1           0       -2.467398   -0.381947    1.537969
      7          1           0       -3.069721   -0.776497    0.187312
      8          1           0        2.105040   -0.971160    1.600710
      9          1           0        1.129263   -1.042702    2.772349
     10          8           0       -0.897471    1.263103   -1.782890
     11          8           0        1.945202    1.325171   -0.051947
     12          1           0       -1.859753    1.166092   -1.648332
     13          1           0       -0.785995    1.238762   -2.742130
     14          1           0        2.589829    1.060757   -0.746136
     15          1           0        2.411743    2.040329    0.417917
     16         11           0        0.004045   -0.007295   -0.034869
 ---------------------------------------------------------------------
                    Distance matrix (angstroms):
                    1          2          3          4          5
     1  O    0.000000
     2  O    3.300947   0.000000
     3  O    3.708010   3.707018   0.000000
     4  H    3.265174   0.965746   3.819021   0.000000
     5  H    3.856129   0.973354   4.658692   1.531373   0.000000
     6  H    3.729352   4.428642   0.966465   4.431468   5.387034
     7  H    4.559219   4.076642   0.980080   4.113962   5.020162
     8  H    0.966638   3.454322   4.507494   3.531175   3.783103
     9  H    0.966008   4.237195   4.071080   4.126983   4.812702
    10  O    4.791018   3.506272   3.213531   4.300208   3.999196
    11  O    3.178489   3.747069   4.592808   4.453641   3.939303
    12  H    5.144402   3.908949   2.775404   4.568195   4.533783
    13  H    5.495833   3.689508   4.005555   4.541860   4.000441
    14  H    3.653817   3.651155   5.239552   4.414936   3.595053
    15  H    3.678881   4.703615   5.277010   5.374899   4.868668
    16  Na   2.458983   2.360359   2.380401   2.902594   3.086692
                    6          7          8          9         10
     6  H    0.000000
     7  H    1.530601   0.000000
     8  H    4.610671   5.367843   0.000000
     9  H    3.859567   4.938092   1.526432   0.000000
    10  O    4.024794   3.572161   5.045369   5.493140   0.000000
    11  O    4.991305   5.442767   2.833718   3.774815   3.328784
    12  H    3.594185   2.933813   5.553710   5.775413   0.976475
    13  H    4.875763   4.225909   5.665871   6.267597   0.966003
    14  H    5.733592   6.023067   3.141877   4.351727   3.643771
    15  H    5.561291   6.167182   3.249943   4.085729   4.049510
    16  Na   2.953339   3.176330   2.831666   3.196662   2.341415
                   11         12         13         14         15
    11  O    0.000000
    12  H    4.129338   0.000000
    13  H    3.834578   1.534481   0.000000
    14  H    0.983543   4.541347   3.925795   0.000000
    15  H    0.974620   4.824868   4.566611   1.531763   0.000000
    16  Na   2.354538   2.730173   3.083195   2.886679   3.192928
                   16
    16  Na   0.000000
 Stoichiometry    H10NaO5(1+)
 Framework group  C1[X(H10NaO5)]
 Deg. of freedom    42
 Full point group                 C1      NOp   1
 Largest Abelian subgroup         C1      NOp   1
 Largest concise Abelian subgroup C1      NOp   1
                         Standard orientation:                         
 ---------------------------------------------------------------------
 Center     Atomic      Atomic             Coordinates (Angstroms)
 Number     Number       Type             X           Y           Z
 ---------------------------------------------------------------------
      1          8           0       -1.961180   -1.375748   -0.387107
      2          8           0       -0.141674   -0.290527    2.144285
      3          8           0        1.718918   -1.596372   -0.784016
      4          1           0       -0.312218   -1.198539    2.425522
      5          1           0       -0.577725    0.256946    2.820710
      6          1           0        1.500247   -2.223215   -1.486373
      7          1           0        2.563012   -1.938713   -0.422264
      8          1           0       -2.665607   -0.750849   -0.168767
      9          1           0       -2.327494   -1.907700   -1.105448
     10          8           0        1.827964    1.542481   -0.103948
     11          8           0       -1.436154    1.740699   -0.726076
     12          1           0        2.604915    0.993127   -0.323177
     13          1           0        2.146162    2.145263    0.580570
     14          1           0       -1.743839    2.243974    0.060945
     15          1           0       -1.941808    2.144760   -1.454727
     16         11           0        0.062851    0.006425   -0.188372
 ---------------------------------------------------------------------
 Rotational constants (GHZ):           1.6623620           1.4383330           1.1898490
 Standard basis: Aug-CC-pVDZ (5D, 7F)
 There are   244 symmetry adapted cartesian basis functions of A   symmetry.
 There are   232 symmetry adapted basis functions of A   symmetry.
   232 basis functions,   406 primitive gaussians,   244 cartesian basis functions
    30 alpha electrons       30 beta electrons
       nuclear repulsion energy       301.9441880718 Hartrees.
 NAtoms=   16 NActive=   16 NUniq=   16 SFac= 1.00D+00 NAtFMM=   60 NAOKFM=F Big=F
 Integral buffers will be    131072 words long.
 Raffenetti 2 integral format.
 Two-electron integral symmetry is turned on.
 Nuclear repulsion after empirical dispersion term =      301.9361710500 Hartrees.
 One-electron integrals computed using PRISM.
 NBasis=   232 RedAO= T EigKep=  2.61D-04  NBF=   232
 NBsUse=   232 1.00D-06 EigRej= -1.00D+00 NBFU=   232
 Initial guess from the checkpoint file:  "sim005_type3_coord-5_0-5-0_10C_b1_id81779_step2120.chk"
 B after Tr=     0.000000    0.000000   -0.000000
         Rot=    0.999466    0.015624    0.006829   -0.027876 Ang=   3.75 deg.
 ExpMin= 6.16D-03 ExpMax= 3.17D+04 ExpMxC= 1.08D+03 IAcc=3 IRadAn=         5 AccDes= 0.00D+00
 Harris functional with IExCor=  402 and IRadAn=       5 diagonalized for initial guess.
 HarFok:  IExCor=  402 AccDes= 0.00D+00 IRadAn=         5 IDoV= 1 UseB2=F ITyADJ=14
 ICtDFT=  3500011 ScaDFX=  1.000000  1.000000  1.000000  1.000000
 FoFCou: FMM=F IPFlag=           0 FMFlag=      100000 FMFlg1=           0
         NFxFlg=           0 DoJE=T BraDBF=F KetDBF=T FulRan=T
         wScrn=  0.000000 ICntrl=       500 IOpCl=  0 I1Cent=   200000004 NGrid=           0
         NMat0=    1 NMatS0=      1 NMatT0=    0 NMatD0=    1 NMtDS0=    0 NMtDT0=    0
 Petite list used in FoFCou.
 Requested convergence on RMS density matrix=1.00D-08 within 500 cycles.
 Requested convergence on MAX density matrix=1.00D-06.
 Requested convergence on             energy=1.00D-06.
 No special actions if energy rises.
 SCF Done:  E(RB3LYP) =  -544.452860105     A.U. after    9 cycles
            NFock=  9  Conv=0.50D-08     -V/T= 2.0060
 DoSCS=F DFT=T ScalE2(SS,OS)=  1.000000  1.000000
 Range of M.O.s used for correlation:     1   232
 NBasis=   232 NAE=    30 NBE=    30 NFC=     0 NFV=     0
 NROrb=    232 NOA=    30 NOB=    30 NVA=   202 NVB=   202

 **** Warning!!: The largest alpha MO coefficient is  0.15110384D+02

 Symmetrizing basis deriv contribution to polar:
 IMax=3 JMax=2 DiffMx= 0.00D+00
 G2DrvN: will do    17 centers at a time, making    1 passes.
 Calling FoFCou, ICntrl=  3107 FMM=F I1Cent=   0 AccDes= 1.00D-11.
 End of G2Drv F.D. properties file   721 does not exist.
 End of G2Drv F.D. properties file   722 does not exist.
 End of G2Drv F.D. properties file   788 does not exist.
          IDoAtm=1111111111111111
          Differentiating once with respect to electric field.
                with respect to dipole field.
          Differentiating once with respect to nuclear coordinates.
 Keep R1 ints in memory in canonical form, NReq=408195286.
          There are    51 degrees of freedom in the 1st order CPHF.  IDoFFX=6 NUNeed=     3.
     48 vectors produced by pass  0 Test12= 1.19D-14 1.96D-09 XBig12= 2.26D+01 1.02D+00.
 AX will form    48 AO Fock derivatives at one time.
     48 vectors produced by pass  1 Test12= 1.19D-14 1.96D-09 XBig12= 2.29D+00 1.90D-01.
     48 vectors produced by pass  2 Test12= 1.19D-14 1.96D-09 XBig12= 2.79D-02 2.10D-02.
     48 vectors produced by pass  3 Test12= 1.19D-14 1.96D-09 XBig12= 6.64D-05 1.03D-03.
     48 vectors produced by pass  4 Test12= 1.19D-14 1.96D-09 XBig12= 9.10D-08 2.68D-05.
     19 vectors produced by pass  5 Test12= 1.19D-14 1.96D-09 XBig12= 8.02D-11 8.32D-07.
      3 vectors produced by pass  6 Test12= 1.19D-14 1.96D-09 XBig12= 5.11D-14 2.45D-08.
 InvSVY:  IOpt=1 It=  1 EMax= 2.66D-15
 Solved reduced A of dimension   262 with    51 vectors.
 Isotropic polarizability for W=    0.000000       47.43 Bohr**3.
 End of Minotr F.D. properties file   721 does not exist.
 End of Minotr F.D. properties file   722 does not exist.
 End of Minotr F.D. properties file   788 does not exist.
 Calling FoFJK, ICntrl=    100127 FMM=F ISym2X=0 I1Cent= 0 IOpClX= 0 NMat=1 NMatS=1 NMatT=0.
 ***** Axes restored to original set *****
 -------------------------------------------------------------------
 Center     Atomic                   Forces (Hartrees/Bohr)
 Number     Number              X              Y              Z
 -------------------------------------------------------------------
      1        8          -0.000844037    0.002809091   -0.000709891
      2        8           0.008247971   -0.000488572   -0.003372728
      3        8          -0.011163652   -0.004168828   -0.003982270
      4        1          -0.000521296   -0.001085131    0.000513562
      5        1          -0.006977312    0.001150397    0.003190043
      6        1          -0.000421471    0.000430983    0.000506974
      7        1           0.012024831    0.004089772    0.004182998
      8        1          -0.000026765   -0.000238445    0.000321505
      9        1          -0.000689279   -0.001592064    0.000139245
     10        8          -0.012030344   -0.004190288    0.001621637
     11        8           0.020035455   -0.001091156   -0.007869380
     12        1           0.008640716    0.003321324   -0.001981390
     13        1           0.001060441    0.001155672    0.000360395
     14        1          -0.010825529    0.005306138    0.009659484
     15        1          -0.006819596   -0.004604578   -0.002570861
     16       11           0.000309866   -0.000804317   -0.000009321
 -------------------------------------------------------------------
 Cartesian Forces:  Max     0.020035455 RMS     0.005639369

 GradGradGradGradGradGradGradGradGradGradGradGradGradGradGradGradGradGrad
 Berny optimization.
 Search for a local minimum.
 Step number   4 out of a maximum of  500
 All quantities printed in internal units (Hartrees-Bohrs-Radians)
 Second derivative matrix not updated -- analytic derivatives used.
 ITU=  0  0  1  0
     Eigenvalues ---   -0.00122  -0.00034  -0.00017  -0.00003   0.00031
     Eigenvalues ---    0.00078   0.00109   0.00132   0.00159   0.00200
[...]

 Dipole orientation:
     8          4.10943326          0.13301061          0.07882412
     8          1.02461225         -4.40021859          0.16160570
     8         -1.62776544          1.16857341          4.23764017
     1          2.76387464         -4.17205969          0.68182715
     1          0.56590627         -6.09635660          0.65084331
     1         -1.01913084          2.64741851          5.11971760
     1         -2.14248611          0.02104155          5.56188115
     1          4.44850315          0.15378194         -1.72006358
     1          5.53428306          0.94477732          0.87633624
     8         -4.33302174          1.60361431         -0.60108439
     8          1.10820118         -1.08985827         -4.21763736
     1         -5.06294914          2.18968822          0.96643152
     1         -5.56881806          1.95336333         -1.89474832
     1          1.14883481         -2.91806500         -4.17408795
     1          0.83773823         -0.63290059         -5.96274486
    11         -0.40837714         -0.13151273          0.01242906

 Electric dipole moment (dipole orientation):
 (Debye = 10**-18 statcoulomb cm , SI units = C m)
                  (au)            (Debye)         (10**-30 SI)
   Tot        0.346951D+00      0.881862D+00      0.294157D+01
   x          0.000000D+00      0.000000D+00      0.000000D+00
   y          0.000000D+00      0.000000D+00      0.000000D+00
   z          0.346951D+00      0.881862D+00      0.294157D+01

 Dipole polarizability, Alpha (dipole orientation).
 (esu units = cm**3 , SI units = C**2 m**2 J**-1)
 Alpha(0;0):
               (au)            (10**-24 esu)      (10**-40 SI)
   iso        0.473572D+02      0.701761D+01      0.780814D+01
   aniso      0.325773D+01      0.482746D+00      0.537128D+00
   xx         0.467641D+02      0.692972D+01      0.771035D+01
   yx         0.346429D+00      0.513354D-01      0.571183D-01
   yy         0.462911D+02      0.685963D+01      0.763237D+01
   zx         0.113300D+01      0.167893D+00      0.186806D+00
   zy        -0.115250D+00     -0.170783D-01     -0.190022D-01
   zz         0.490164D+02      0.726348D+01      0.808171D+01

 ----------------------------------------------------------------------

 Test job not archived.
 1\1\GINC-N684\Freq\RB3LYP\Aug-CC-pVDZ\H10Na1O5(1+)\HNR2\18-Jul-2022\0\
 \#N Geom=AllCheck Guess=TCheck SCRF=Check Test GenChk RB3LYP/Aug-CC-pV
 DZ Freq\\MD frame sim005_type3_coord-5_0-5-0_10C_b1_id81779_step2120\\
 1,1\O,1.0598089455,-0.8174030002,1.7159011496\O,1.1137196716,-1.873361
 4041,-0.9865759585\O,-2.3985874421,-0.605790301,0.1811104853\H,1.32992
 47893,-2.3133997318,-0.1516634879\H,1.1376627601,-2.558545948,-1.66591
 7846\H,-2.892656012,-0.4731633542,1.0010712943\H,-2.8403169816,-1.3479
 023696,-0.2526480617\H,1.8764591642,-0.2989533292,1.6631845274\H,0.958
 7041709,-1.0688038565,2.6420344158\O,-1.264439903,1.6676491281,-1.3034
 514451\O,2.2329121721,0.7344598226,-0.3639651967\H,-2.217953233,1.5260
 492321,-1.2386127832\H,-1.1485292455,2.4658184121,-1.8326476373\H,2.60
 03472179,0.0425012538,-0.9324093503\H,2.7725791213,1.5200175731,-0.516
 9831592\Na,-0.0893251955,0.0313678726,-0.2064569465\\Version=ES64L-G16
 RevB.01\State=1-A\HF=-544.4645766\RMSD=1.124e-09\RMSF=1.284e-06\ZeroPo
 int=0.1205894\Thermal=0.1376226\Dipole=-0.2655446,-0.211469,0.0717076\
 DipoleDeriv=-0.552188,0.0457054,0.0760244,0.0473873,-0.6116637,0.03425
 97,0.049467,0.0182177,-0.5894852,-0.6448005,-0.0383542,0.0190576,-0.03
 30338,-0.511205,-0.0462049,0.0212862,-0.071089,-0.5769362,-0.570297,0.
 0636944,-0.0439,0.0622214,-0.5511904,0.037572,-0.0410212,0.0372249,-0.
 5266937,0.2978085,0.0146882,-0.0149998,0.0122739,0.2728727,0.0679256,-
 0.0132645,0.0842258,0.3641823,0.3338414,0.0097344,-0.0040529,0.0101282
 ,0.2334054,-0.0086832,-0.0045266,-0.0040011,0.3065756,0.2786954,-0.034
 6063,0.0354699,-0.0329843,0.2980861,0.0012028,0.0348844,0.0056057,0.28
 6257,0.2840959,-0.0455308,0.0174191,-0.0458472,0.2803988,0.0000531,0.0
 154464,-0.0044278,0.2992995,0.2617575,0.0048393,-0.0717334,0.007987,0.
 3221068,-0.0745686,-0.0599992,-0.0654773,0.3700877,0.3049853,-0.019038
 2,-0.0277893,-0.019172,0.3185927,-0.0087904,-0.0251351,-0.0050275,0.24
 60227,-0.5262308,-0.0265525,0.0225498,-0.0231363,-0.5945302,-0.0071165
 ,0.0208981,-0.0084678,-0.5923283,-0.5627849,-0.011899,-0.0772203,-0.03
 26185,-0.5991015,0.0497062,-0.0799055,0.0339605,-0.56761,0.2334235,0.0
 404805,-0.0300104,0.0373155,0.3479217,-0.0259937,-0.0288227,-0.025342,
 0.3227317,0.2932661,0.0200666,-0.0148733,0.0226059,0.2793437,0.0397126
 ,-0.0166358,0.0403021,0.3098918,0.2911092,0.0545963,0.0373852,0.064110
 7,0.3685879,-0.0071988,0.0414126,0.0041061,0.2660384,0.2823272,-0.0256
 332,0.0469125,-0.0234087,0.3001584,0.0055269,0.0508623,0.0110572,0.289
 8313,0.9949913,-0.0521909,0.0297609,-0.0538293,0.8462165,-0.0574027,0.
 0350536,-0.0508674,0.7921353\Polar=46.9143321,1.3662041,47.8200042,-0.
 7189234,-0.9741071,47.3371872\Quadrupole=6.0242999,-1.6345929,-4.38970
 7,0.0018808,-0.0771447,-2.9355021\PG=C01 [X(H10Na1O5)]\NImag=0\\0.4082
 4306,0.25320963,0.19868884,-0.04754004,-0.14313822,0.55042618,0.001839
 20,0.00030253,-0.00021536,0.04258173,0.00066314,0.00002426,-0.00465695
 ,-0.07843567,0.45140228,0.00032263,-0.00241926,-0.00582546,0.09082331,
 0.06256433,0.66499314,-0.00116563,-0.00017676,-0.00029868,-0.00110725,
 0.00026344,0.00071356,0.30117648,-0.00001577,0.00094327,-0.00002696,0.
 00114320,0.00040277,-0.00029852,0.17243341,0.34580240,-0.00134182,-0.0
 0000682,0.00058287,0.00088406,-0.00003928,0.00062898,-0.13583857,0.233
 70585,0.50179458,-0.00250706,-0.00026477,0.00016025,-0.03124093,0.0523
 7919,-0.09847177,0.00056374,-0.00060162,0.00011009,0.03313991,-0.00121
 566,-0.00039413,0.00265780,0.06116149,-0.14761192,0.20715296,-0.000219
 72,-0.00011765,-0.00018390,-0.05402720,0.13771051,-0.00062947,0.002525
 38,-0.00046237,-0.08949721,0.15593641,-0.37944120,-0.00009147,-0.00007
 895,-0.00056373,0.09757976,-0.17839446,0.40318973,0.00017710,0.0000112
 1,0.00008330,-0.00774804,0.02251594,0.00700950,0.00004365,-0.00029286,
 -0.00030840,-0.00010765,-0.00774305,-0.00763934,0.00719820,-0.00005441
 ,0.00075122,0.00044244,0.01458193,-0.28868234,-0.26256781,-0.00010249,
 0.00001367,0.00009815,0.00083196,0.01201736,0.02010600,-0.01462067,0.2
 7690592,-0.00001337,0.00002087,-0.00057308,-0.00264432,-0.20926249,-0.
 27410122,-0.00028716,0.00021109,-0.00002926,0.00234845,-0.03328372,-0.
 02482576,0.00020858,0.24298345,0.29918939,0.00085323,-0.00005550,-0.00
 028038,-0.00009528,0.00004517,-0.00020951,-0.15755071,0.02714858,0.233
 11237,-0.00007779,0.00007838,0.00020251,-0.00001104,-0.00000195,0.0000
 3229,0.14918881,-0.00014333,-0.00036386,-0.00001376,-0.00013105,-0.000
 05357,0.00009593,0.00106326,-0.03675614,-0.04675802,0.00012299,0.00003
 574,-0.00003510,0.00002151,0.00000833,-0.00004569,-0.01953718,0.042076
 31,0.00028482,-0.00004738,-0.00036546,-0.00034195,0.00003177,-0.000043
 11,0.19860491,-0.08083162,-0.36981766,0.00009373,0.00002538,0.00014361
 ,0.00007426,-0.00001635,-0.00002037,-0.21463838,0.07938910,0.38826098,
 -0.00002863,0.00029678,0.00008218,0.00111163,0.00018412,-0.00005469,-0
 .13307758,-0.19525853,-0.10012068,-0.00033889,-0.00005852,-0.00015199,
 -0.00034452,0.00007412,0.00017710,0.00867502,0.01877485,0.01567962,0.1
 2455077,0.00021024,-0.00023839,-0.00001085,-0.00033543,-0.00034582,0.0
 0002318,-0.16994335,-0.30376644,-0.18755039,0.00019427,0.00011724,0.00
 007163,0.00020781,0.00007207,-0.00008178,-0.00770995,-0.00571856,0.001
 07606,0.17815063,0.31022162,0.00028905,0.00007817,-0.00007981,-0.00015
 018,-0.00008062,-0.00048366,-0.06508618,-0.15348346,-0.12741426,-0.000
 18018,0.00005696,0.00020756,0.00023070,-0.00004234,0.00011514,-0.02021
 390,-0.03382229,-0.01819676,0.08521369,0.18659880,0.14481230,-0.361456
 64,-0.22633715,0.03151174,-0.00050508,0.00000550,0.00060164,0.00008501
 ,0.00008750,0.00009546,0.00053272,-0.00014176,-0.00069079,0.00008213,0
 .00001593,0.00002572,-0.00008107,-0.00004225,-0.00005556,-0.00001202,-
 0.00001196,-0.00004807,0.36897943,-0.21841289,-0.14685096,0.02847490,0
 .00039895,0.00000210,0.00083687,0.00021671,-0.00017619,0.00021147,-0.0
 0120417,-0.00108578,-0.00099894,0.00011624,-0.00007117,-0.00007223,-0.
 00013765,0.00009599,-0.00005638,-0.00004198,0.00002262,-0.00003207,0.2
 2774685,0.15346598,-0.01268167,0.00135141,-0.04756791,0.00112566,0.000
 73841,-0.00025907,-0.00025337,0.00014290,-0.00039171,-0.00126904,-0.00
 070883,0.00078056,0.00009296,0.00009198,-0.00018341,0.00016598,-0.0000
 4858,0.00008817,0.00000234,0.00001094,0.00010360,-0.02338027,-0.022996
 91,0.04926418,-0.04152794,-0.02514929,0.01575174,-0.00013566,-0.000235
 34,-0.00043368,0.00013710,-0.00013437,0.00064632,0.00004821,0.00021021
 ,0.00032063,0.00020145,-0.00001072,0.00000965,-0.00041539,0.00013535,-
 0.00032155,-0.00002540,-0.00004550,-0.00013757,-0.00327788,-0.00963581
 ,0.03926667,0.04413370,-0.03433178,-0.04729677,0.10773354,-0.00011299,
 -0.00088253,-0.00106197,-0.00007923,-0.00034023,-0.00009660,0.00012968
 ,0.00134963,0.00006038,-0.00003937,0.00001351,-0.00033509,0.00011939,0
 .00018124,0.00007618,-0.00007142,0.00012210,-0.00005800,-0.00054744,-0
 .00572509,0.02493541,0.03548402,0.05308767,0.06125311,0.13680619,-0.48
 232141,0.00007838,-0.00030992,0.00003843,0.00028612,-0.00007292,0.0001
 4588,-0.00013135,0.00030601,-0.00071236,0.00004333,-0.00004653,-0.0000
 8486,-0.00014713,0.00004377,0.00004438,-0.00005190,-0.00000159,-0.0000
 3204,-0.00654993,-0.00342452,-0.00363251,-0.05523907,-0.13323489,0.486
 45847,0.00034425,0.00038462,-0.00046698,0.00032834,0.00047733,-0.00016
 283,0.00021487,-0.00152380,0.00093011,-0.00011111,-0.00002379,0.000107
 11,-0.00013192,-0.00009804,-0.00000812,-0.00015076,0.00001424,-0.00031
 708,-0.00018122,0.00025470,0.00017794,-0.00001954,-0.00031700,0.000429
 30,-0.00015277,-0.00000970,0.00006988,0.56555544,0.00033498,0.00018544
 ,0.00031929,0.00082058,-0.00029347,0.00017698,-0.00218411,-0.00325877,
 0.00335642,-0.00013184,-0.00001875,-0.00020551,-0.00020872,0.00012887,
 0.00005884,-0.00007776,-0.00092548,-0.00023515,0.00006294,0.00014388,0
 .00019432,-0.00007895,-0.00021003,0.00008133,-0.00001524,-0.00003393,-
 0.00009437,0.09973734,0.41698456,-0.00055105,0.00051052,0.00003792,-0.
 00011228,0.00008821,0.00071276,0.00140138,0.00346529,-0.00024537,0.000
 15972,-0.00017915,-0.00023834,-0.00009964,0.00012540,-0.00021924,-0.00
 015107,-0.00033230,0.00011981,0.00016439,0.00023009,-0.00097732,0.0002
 4373,-0.00006980,-0.00017115,0.00008581,-0.00015325,0.00004857,-0.0494
 3292,-0.27009244,0.18602509,0.00020615,-0.00199974,0.00353234,-0.00024
 457,-0.00359997,-0.00089712,-0.00031101,-0.00023428,0.00017310,-0.0004
 3605,-0.00013420,-0.00024782,-0.00042154,-0.00042158,0.00036496,0.0000
 3364,0.00001030,-0.00011775,0.00005915,0.00011654,0.00003275,-0.002722
 68,-0.00028474,0.00009707,-0.00013336,-0.00046770,0.00020595,-0.001432
 38,0.00011232,-0.00004637,0.29743344,-0.00201529,-0.00033610,0.0057373
 3,-0.00302663,-0.00552705,-0.00235152,-0.00040052,0.00047753,-0.000024
 03,0.00046880,0.00071190,-0.00056036,-0.00046582,-0.00051693,0.0010112
 4,0.00004970,-0.00016761,-0.00001311,0.00020871,-0.00011422,0.00001324
 ,0.00010046,-0.00286421,-0.00277252,-0.00050043,-0.00035319,0.00007155
 ,0.00101363,0.00095615,0.00001913,0.11008700,0.63471385,0.00213564,0.0
 0344474,-0.00453119,0.00013171,-0.00045575,0.00190130,0.00012096,-0.00
 007224,0.00042532,-0.00042383,-0.00082120,-0.00096126,0.00012100,0.000
 23811,-0.00005116,-0.00016181,-0.00000507,-0.00013532,0.00004362,0.000
 02102,-0.00013616,-0.00068688,-0.00167675,0.00141953,0.00052704,0.0006
 1402,0.00072606,-0.00080310,0.00002193,0.00078185,-0.19209475,0.144189
 50,0.22571148,0.00000808,-0.00011710,0.00011329,0.00006426,-0.00012678
 ,0.00005775,-0.00181494,-0.00002435,0.00003951,0.00002909,-0.00000546,
 -0.00003654,-0.00001094,0.00004093,-0.00001025,0.00018003,-0.00041697,
 0.00048056,0.00016180,-0.00052637,0.00016166,-0.00002760,0.00004965,-0
 .00004484,0.00003455,0.00002986,-0.00002113,-0.50308598,-0.08372578,0.
 04039446,0.00009709,-0.00005347,0.00005028,0.51179251,-0.00023448,-0.0
 0020863,0.00005828,-0.00042376,-0.00012612,0.00000344,-0.00053850,0.00
 082121,-0.00245890,0.00013482,0.00000181,0.00002736,0.00014693,-0.0000
 1720,-0.00001954,-0.00007708,0.00073394,0.00031112,-0.00003422,-0.0008
 3433,0.00030604,0.00001516,0.00014103,-0.00012521,0.00008854,0.0000345
 3,0.00003464,-0.04009920,-0.04305446,0.02533929,0.00029562,-0.00031688
 ,0.00022128,0.07775088,0.04734017,0.00031601,-0.00003058,-0.00014486,0
 .00007866,0.00003365,-0.00024040,0.00039058,-0.00250370,-0.00129128,-0
 .00010031,0.00005003,0.00011085,0.00002575,-0.00002752,0.00007515,0.00
 002639,0.00104869,-0.00062770,0.00004792,-0.00040136,0.00104937,-0.000
 06793,-0.00005692,0.00013788,-0.00011570,0.00005120,-0.00001885,0.0112
 5878,0.02399012,-0.01887914,-0.00021245,0.00018438,-0.00015052,-0.0361
 7481,-0.02659883,0.02060116,-0.00020035,-0.00004271,0.00003933,-0.0002
 3749,-0.00003783,0.00009301,0.00006279,-0.00032328,0.00020111,0.000047
 87,0.00001001,-0.00001140,0.00004409,0.00003719,-0.00003335,0.00010258
 ,-0.00008282,0.00000292,0.00010470,-0.00004536,0.00008399,0.00008260,0
 .00011644,-0.00016219,0.00001529,-0.00000754,-0.00001427,-0.05436757,-
 0.01983705,0.01169738,0.00023200,-0.00070077,0.00046991,-0.00547734,-0
 .03988729,0.02644603,0.05893289,-0.00004726,-0.00000917,-0.00009759,-0
 .00009513,0.00009792,-0.00013909,-0.00028434,0.00038876,0.00013859,0.0
 0001001,0.00000831,0.00006642,0.00004802,-0.00006129,0.00003461,-0.000
 02719,-0.00024615,0.00014926,0.00002590,-0.00005446,0.00009879,0.00000
 881,0.00000792,0.00005017,0.00001047,0.00000614,0.00002513,-0.06497508
 ,-0.35809671,0.23496018,-0.00027449,-0.00005891,-0.00028762,0.00608320
 ,-0.00593674,0.00410557,0.05958469,0.36418563,0.00005649,-0.00013611,-
 0.00001288,0.00003698,-0.00003782,-0.00011363,0.00016434,0.00014436,0.
 00053412,0.00000548,0.00002910,0.00003633,-0.00000832,-0.00002657,0.00
 006675,-0.00003697,0.00001890,0.00004580,0.00004552,0.00021362,-0.0001
 4052,-0.00004724,0.00006931,0.00000671,-0.00001455,0.00004243,-0.00000
 446,0.04181817,0.23640635,-0.15954999,0.00016174,-0.00026520,-0.000242
 95,-0.00422900,0.00268302,-0.00200273,-0.03802608,-0.23975466,0.161088
 39,-0.00007854,-0.00026916,-0.00029299,-0.00016381,0.00187869,0.000084
 05,0.00016888,-0.00010253,-0.00014061,0.00041205,0.00019064,0.00052970
 ,0.00050035,0.00039475,-0.00050377,0.00001634,0.00003164,0.00004685,-0
 .00011480,0.00002286,0.00003607,0.00023042,0.00019220,-0.00004128,-0.0
 0000635,-0.00013871,-0.00006444,0.00010805,-0.00032096,-0.00020067,-0.
 10269232,0.13824490,0.13263086,-0.00003476,0.00003229,-0.00000943,0.00
 000476,0.00011107,0.00007716,0.09670738,-0.00005939,-0.00142536,-0.000
 08801,0.00281581,0.00001438,-0.00008074,0.00014619,-0.00031091,-0.0000
 9205,-0.00086992,-0.00062739,0.00119895,-0.00010261,-0.00030458,-0.000
 73482,0.00000599,0.00007251,0.00003675,-0.00017762,0.00008949,0.000035
 06,0.00014442,0.00170827,-0.00036848,-0.00010908,-0.00011303,-0.000002
 45,-0.00047497,-0.00025232,0.00002628,0.09927629,-0.27126906,-0.182964
 56,0.00002979,0.00018660,-0.00004704,0.00023157,-0.00002872,0.00001085
 ,-0.11912425,0.29419767,-0.00075707,0.00035588,0.00056377,-0.00052227,
 -0.00058043,-0.00305650,-0.00006085,0.00000310,-0.00013981,0.00120041,
 0.00132965,0.00038911,-0.00072210,-0.00068332,0.00041160,0.00004915,0.
 00000726,0.00004267,-0.00001121,-0.00000240,0.00005466,0.00109693,-0.0
 0126209,-0.00152805,-0.00002870,0.00019464,-0.00008435,0.00001767,-0.0
 0011313,-0.00025895,0.11857018,-0.21610341,-0.18506701,-0.00003255,-0.
 00001654,0.00002981,-0.00001571,0.00009575,0.00013425,-0.11940643,0.20
 704730,0.18399371,0.00010194,0.00010013,0.00003303,0.00046908,0.000125
 38,-0.00020181,0.00001385,0.00013432,-0.00005776,-0.00007929,-0.000071
 85,0.00009208,0.00007955,-0.00015208,0.00005811,-0.00001594,-0.0000440
 9,0.00001757,-0.00001779,-0.00004102,0.00000962,-0.00020608,-0.0000299
 6,0.00026158,0.00021193,-0.00008702,-0.00001052,0.00061906,0.00034166,
 -0.00004182,-0.18309639,-0.24155135,0.05605439,-0.00006577,-0.00010218
 ,0.00009066,-0.00042775,0.00003714,-0.00016198,0.00780734,0.01791923,-
 0.00005421,0.17466841,0.00048225,0.00026232,-0.00044112,0.00009460,-0.
 00018321,-0.00030542,0.00015547,-0.00007373,0.00000764,-0.00008891,-0.
 00006923,-0.00003711,-0.00027858,-0.00010234,0.00009733,-0.00002955,0.
 00003968,0.00000182,-0.00003246,0.00001838,-0.00000592,-0.00054638,-0.
 00040588,0.00060396,-0.00005285,0.00009005,0.00002251,-0.00001623,-0.0
 0034934,-0.00002474,-0.20147088,-0.35066133,0.03685745,0.00003125,0.00
 002591,-0.00000754,0.00020133,0.00014991,0.00011143,-0.02274640,-0.024
 36123,0.01001499,0.22478920,0.37536488,0.00034345,0.00035937,-0.001518
 73,-0.00044275,-0.00077022,0.00006220,-0.00001593,0.00003239,-0.000057
 33,-0.00002722,-0.00019501,-0.00005989,-0.00002320,-0.00011506,0.00013
 812,0.00001476,0.00001429,0.00002458,0.00001022,-0.00002076,0.00001612
 ,0.00059546,0.00065585,0.00143863,0.00026244,0.00027291,-0.00017074,0.
 00024250,0.00002671,-0.00025053,0.07158169,0.07092004,-0.03651895,-0.0
 0002591,-0.00003411,0.00004711,-0.00025127,0.00006967,0.00011756,-0.01
 524152,-0.02401985,0.00347007,-0.05649361,-0.04704670,0.03310068,-0.00
 480822,0.00010727,-0.00221276,-0.00491614,0.00389769,0.00072597,-0.007
 43925,-0.00243560,0.00161572,0.00012516,0.00199049,0.00016425,0.000449
 15,-0.00051489,0.00027549,-0.00065168,0.00022355,0.00050704,-0.0005222
 1,-0.00049811,-0.00041939,-0.00168373,0.00122716,-0.00360890,0.0008925
 2,0.00012993,0.00029297,-0.00753675,0.00517057,-0.00351105,-0.00657119
 ,-0.00145894,0.00188497,-0.00185008,0.00293246,-0.00200015,0.00108093,
 -0.00021580,0.00015825,-0.00286499,0.00034853,0.00067674,-0.00006214,-
 0.00049184,-0.00052913,0.03635862,0.00163005,-0.00373198,0.00304987,0.
 00124158,-0.00823770,-0.00162935,-0.00034948,-0.00404955,-0.00030811,0
 .00291671,-0.00202766,0.00031791,0.00068402,-0.00015511,-0.00058207,0.
 00020661,0.00098763,0.00010253,-0.00210329,0.00026482,0.00014333,-0.00
 041876,0.00194539,-0.00098596,-0.00003997,-0.00014010,-0.00012260,0.00
 565593,-0.01190566,0.00608727,-0.00101049,-0.00467395,0.00067513,0.000
 98072,0.00120913,0.00020986,0.00078341,-0.00035244,0.00049099,0.001602
 97,0.00242368,-0.00028726,-0.00136753,0.00025514,-0.00014952,-0.010412
 47,0.02818836,-0.00148672,0.00032582,-0.00820756,0.00076756,-0.0031993
 1,-0.00477257,0.00025035,-0.00033662,-0.00416133,-0.00105419,0.0021583
 8,0.00240714,0.00091160,-0.00056004,0.00009221,0.00223571,0.00044290,0
 .00043637,-0.00107614,-0.00017621,0.00110179,-0.00264401,0.00039821,0.
 00049454,-0.00057949,0.00095909,-0.00040020,-0.00386040,0.00610833,-0.
 00693598,-0.00110351,-0.00005627,-0.00317102,-0.00072249,0.00026867,0.
 00130415,-0.00051939,0.00048483,0.00003726,0.00249645,0.00004281,0.001
 04504,0.00040467,0.00015142,0.00016111,0.00598000,-0.00701202,0.020569
 05\\-0.00000060,-0.00000071,-0.00000030,-0.00000152,-0.00000042,0.0000
 0007,0.00000258,0.00000415,-0.00000051,-0.00000049,-0.00000043,-0.0000
 0016,-0.00000068,-0.00000010,-0.00000071,-0.00000177,0.00000352,0.0000
 0344,-0.00000143,-0.00000251,-0.00000011,0.00000016,-0.00000068,0.0000
 0023,-0.00000045,-0.00000096,0.00000039,0.00000192,-0.00000012,-0.0000
 0054,0.00000055,-0.00000162,0.00000018,-0.00000006,-0.00000018,-0.0000
 0107,0.00000072,0.00000034,-0.00000158,0.00000013,-0.00000052,0.000000
 08,0.00000056,-0.00000027,0.00000048,0.00000041,0.00000052,0.00000013\
 \\@


    WHAT WE HAVE LEARNED
 IS LIKE A HANDFUL OF EARTH;
  WHAT WE HAVE YET TO LEARN
   IS LIKE THE WHOLE WORLD.

         -- AVVAYIAR
 Job cpu time:       0 days  1 hours  2 minutes 27.3 seconds.
 Elapsed time:       0 days  0 hours  1 minutes 35.2 seconds.
 File lengths (MBytes):  RWF=     88 Int=      0 D2E=      0 Chk=      6 Scr=      1
 Normal termination of Gaussian 16 at Mon Jul 18 21:14:57 2022.
