 Entering Gaussian System, Link 0=g16
 Initial command:
 /share/sw/gaussian/g16_B.01_avx2-enabled/g16/l1.exe "/scratch/hnr2/2615643/Gau-9363.inp" -scrdir="/scratch/hnr2/2615643/"
 Entering Link 1 = /share/sw/gaussian/g16_B.01_avx2-enabled/g16/l1.exe PID=      9364.
  
 Copyright (c) 1988-2017, Gaussian, Inc.  All Rights Reserved.
  
 This is part of the Gaussian(R) 16 program.  It is based on
 the Gaussian(R) 09 system (copyright 2009, Gaussian, Inc.),
 the Gaussian(R) 03 system (copyright 2003, Gaussian, Inc.),
 the Gaussian(R) 98 system (copyright 1998, Gaussian, Inc.),
 the Gaussian(R) 94 system (copyright 1995, Gaussian, Inc.),
 the Gaussian 92(TM) system (copyright 1992, Gaussian, Inc.),
 the Gaussian 90(TM) system (copyright 1990, Gaussian, Inc.),
 the Gaussian 88(TM) system (copyright 1988, Gaussian, Inc.),
 the Gaussian 86(TM) system (copyright 1986, Carnegie Mellon
 University), and the Gaussian 82(TM) system (copyright 1983,
 Carnegie Mellon University). Gaussian is a federally registered
 trademark of Gaussian, Inc.
  
 This software contains proprietary and confidential information,
 including trade secrets, belonging to Gaussian, Inc.
  
 This software is provided under written license and may be
 used, copied, transmitted, or stored only in accord with that
 written license.
  
 The following legend is applicable only to US Government
 contracts under FAR:
  
                    RESTRICTED RIGHTS LEGEND
  
 Use, reproduction and disclosure by the US Government is
 subject to restrictions as set forth in subparagraphs (a)
 and (c) of the Commercial Computer Software - Restricted
 Rights clause in FAR 52.227-19.
  
 Gaussian, Inc.
 340 Quinnipiac St., Bldg. 40, Wallingford CT 06492
  
  
 ---------------------------------------------------------------
 Warning -- This program may not be used in any manner that
 competes with the business of Gaussian, Inc. or will provide
 assistance to any competitor of Gaussian, Inc.  The licensee
 of this program is prohibited from giving any competitor of
 Gaussian, Inc. access to this program.  By using this program,
 the user acknowledges that Gaussian, Inc. is engaged in the
 business of creating and licensing software in the field of
 computational chemistry and represents and warrants to the
 licensee that it is not a competitor of Gaussian, Inc. and that
 it will not use this program in any manner prohibited above.
 ---------------------------------------------------------------
  

 Cite this work as:
 Gaussian 16, Revision B.01,
 M. J. Frisch, G. W. Trucks, H. B. Schlegel, G. E. Scuseria, 
 M. A. Robb, J. R. Cheeseman, G. Scalmani, V. Barone, 
 G. A. Petersson, H. Nakatsuji, X. Li, M. Caricato, A. V. Marenich, 
 J. Bloino, B. G. Janesko, R. Gomperts, B. Mennucci, H. P. Hratchian, 
 J. V. Ortiz, A. F. Izmaylov, J. L. Sonnenberg, D. Williams-Young, 
 F. Ding, F. Lipparini, F. Egidi, J. Goings, B. Peng, A. Petrone, 
 T. Henderson, D. Ranasinghe, V. G. Zakrzewski, J. Gao, N. Rega, 
 G. Zheng, W. Liang, M. Hada, M. Ehara, K. Toyota, R. Fukuda, 
 J. Hasegawa, M. Ishida, T. Nakajima, Y. Honda, O. Kitao, H. Nakai, 
 T. Vreven, K. Throssell, J. A. Montgomery, Jr., J. E. Peralta, 
 F. Ogliaro, M. J. Bearpark, J. J. Heyd, E. N. Brothers, K. N. Kudin, 
 V. N. Staroverov, T. A. Keith, R. Kobayashi, J. Normand, 
 K. Raghavachari, A. P. Rendell, J. C. Burant, S. S. Iyengar, 
 J. Tomasi, M. Cossi, J. M. Millam, M. Klene, C. Adamo, R. Cammi, 
 J. W. Ochterski, R. L. Martin, K. Morokuma, O. Farkas, 
 J. B. Foresman, and D. J. Fox, Gaussian, Inc., Wallingford CT, 2016.
 
 ******************************************
 Gaussian 16:  ES64L-G16RevB.01 20-Dec-2017
                18-Jul-2022 
 ******************************************
 %nprocshared=40
 Will use up to   40 processors via shared memory.
 %mem=60GB
 %chk=sim006_type3_coord-5_3-2-0_10C_b1_id81756_step1780.chk
 ----------------------------------------------------------------------
 # opt=(calcall,maxcycles=500,maxstep=10,cartesian) freq iop(1/152=500,
 1/8=10) scf=(maxcycle=500) int(Acc2E=11,grid=ultrafine) rb3lyp/aug-cc-
 pvdz empiricaldispersion=gd3
 ----------------------------------------------------------------------
 1/6=500,8=10,10=4,18=10,26=4,38=1,152=500/1,3;
 2/12=2,17=6,18=5,29=2,40=1/2;
 3/5=16,7=10,11=2,25=1,27=11,30=1,71=2,74=-5,75=-5,116=1,124=31,140=1/1,2,3;
 4//1;
 5/5=2,7=500,38=5,87=11/2;
 8/6=4,10=90,11=11,87=11/1;
 11/6=1,8=1,9=11,15=111,16=1,87=11/1,2,10;
 10/6=1,87=11/2;
 6/7=2,8=2,9=2,10=2,18=1,28=1,87=11/1;
 7/7=1,10=1,25=1,87=11/1,2,3,16;
 1/6=500,8=10,10=4,18=10,26=4,152=500/3(3);
 2/29=1/2;
 7/7=1,8=1,9=1,25=1,44=-1,87=11/16;
 99/12=1/99;
 2/29=1/2;
 3/5=16,7=10,11=2,25=1,27=11,30=1,71=2,74=-5,75=-5,116=1,124=31,140=1/1,2,3;
 4/5=5,16=3,69=1/1;
 5/5=2,7=500,38=5,87=11/2;
 8/6=4,10=90,11=11,87=11/1;
 11/6=1,8=1,9=11,15=111,16=1,87=11/1,2,10;
 10/6=1,87=11/2;
 7/7=1,10=1,25=1,87=11/1,2,3,16;
 1/6=500,8=10,10=4,18=10,26=4,152=500/3(-8);
 2/29=1/2;
 6/7=2,8=2,9=2,10=2,18=1,19=2,28=1,87=11/1;
 7/7=1,8=1,9=1,25=1,44=-1,87=11/16;
 99/12=1/99;
 -----------------------------------------------------------
 MD frame sim006_type3_coord-5_3-2-0_10C_b1_id81756_step1780
 -----------------------------------------------------------
 Symbolic Z-matrix:
 Charge =  1 Multiplicity = 1
 O                    -1.293    -0.83209  -1.79345 
 H                    -0.85201  -1.60109  -2.15644 
 H                    -2.155    -1.15309  -1.52845 
 O                    -0.25151  -2.07081   0.78855 
 H                     0.37199  -2.76861   0.58855 
 H                    -0.37761  -2.1264    1.73556 
 O                     1.94319   0.04145  -1.29444 
 H                     2.50539  -0.73154  -1.23844 
 H                     2.14339   0.42146  -2.14944 
 O                    -1.867     1.0364    1.19056 
 H                    -2.301     1.8864    1.25655 
 H                    -2.449     0.5109    0.64255 
 O                     1.74      0.8047    1.53255 
 H                     2.364     0.1467    1.83756 
 H                     2.145     1.1758    0.74856 
 Na                    0.        0.        0. 
 

 GradGradGradGradGradGradGradGradGradGradGradGradGradGradGradGradGradGrad
 Berny optimization.
 Initialization pass.
 No Z-matrix variables, so optimization will use Cartesian coordinates.
 Trust Radius=1.00D-01 FncErr=1.00D-07 GrdErr=1.00D-06 EigMax=2.50D+02 EigMin=1.00D-04
 Number of steps in this run=    500 maximum allowed number of steps=    500.
 GradGradGradGradGradGradGradGradGradGradGradGradGradGradGradGradGradGrad

 ---------------------------------------------------------------------------------------------------
                            Z-MATRIX (ANGSTROMS AND DEGREES)
   CD    Cent   Atom    N1       Length/X        N2       Alpha/Y        N3        Beta/Z          J
 ---------------------------------------------------------------------------------------------------
      1      1  O        0  -1.293000         -0.832090         -1.793450
      2      2  H        0  -0.852010         -1.601090         -2.156440
      3      3  H        0  -2.155000         -1.153090         -1.528450
      4      4  O        0  -0.251510         -2.070810          0.788550
      5      5  H        0   0.371990         -2.768610          0.588550
      6      6  H        0  -0.377610         -2.126400          1.735560
      7      7  O        0   1.943190          0.041450         -1.294440
      8      8  H        0   2.505390         -0.731540         -1.238440
      9      9  H        0   2.143390          0.421460         -2.149440
     10     10  O        0  -1.867000          1.036400          1.190560
     11     11  H        0  -2.301000          1.886400          1.256550
     12     12  H        0  -2.449000          0.510900          0.642550
     13     13  O        0   1.740000          0.804700          1.532550
     14     14  H        0   2.364000          0.146700          1.837560
     15     15  H        0   2.145000          1.175800          0.748560
     16     16  Na       0   0.000000          0.000000          0.000000
 ---------------------------------------------------------------------------------------------------
                         Z-Matrix orientation:                         
 ---------------------------------------------------------------------
 Center     Atomic      Atomic             Coordinates (Angstroms)
 Number     Number       Type             X           Y           Z
 ---------------------------------------------------------------------
      1          8           0       -1.293000   -0.832090   -1.793450
      2          1           0       -0.852010   -1.601090   -2.156440
      3          1           0       -2.155000   -1.153090   -1.528450
      4          8           0       -0.251510   -2.070810    0.788550
      5          1           0        0.371990   -2.768610    0.588550
      6          1           0       -0.377610   -2.126400    1.735560
      7          8           0        1.943190    0.041450   -1.294440
      8          1           0        2.505390   -0.731540   -1.238440
      9          1           0        2.143390    0.421460   -2.149440
     10          8           0       -1.867000    1.036400    1.190560
     11          1           0       -2.301000    1.886400    1.256550
     12          1           0       -2.449000    0.510900    0.642550
     13          8           0        1.740000    0.804700    1.532550
     14          1           0        2.364000    0.146700    1.837560
     15          1           0        2.145000    1.175800    0.748560
     16         11           0        0.000000    0.000000    0.000000
 ---------------------------------------------------------------------
                    Distance matrix (angstroms):
                    1          2          3          4          5
     1  O    0.000000
     2  H    0.957912   0.000000
     3  H    0.957241   1.514219   0.000000
     4  O    3.047270   3.042072   3.135917   0.000000
     5  H    3.492309   3.224321   3.671140   0.956910   0.000000
     6  H    3.868732   3.955840   3.841902   0.956985   1.513263
     7  O    3.388954   3.354717   4.275143   3.690149   3.729713
     8  H    3.840041   3.587614   4.688395   3.674620   3.469718
     9  H    3.675172   3.614302   4.619631   4.536380   4.561907
    10  O    3.567218   4.380521   3.502831   3.525078   4.455737
    11  H    4.208177   5.090251   4.125050   4.480953   5.409271
    12  H    3.012317   3.852950   2.751098   3.393450   4.326209
    13  O    4.789619   5.110283   5.326696   3.576060   3.940956
    14  H    5.245561   5.417520   5.782805   3.585898   3.745285
    15  H    4.723694   5.013204   5.394303   4.035509   4.327533
    16  Na   2.362347   2.817737   2.882673   2.230095   2.854815
                    6          7          8          9         10
     6  H    0.000000
     7  O    4.389372   0.000000
     8  H    4.370583   0.957454   0.000000
     9  H    5.285854   0.956824   1.513398   0.000000
    10  O    3.538165   4.656468   5.305040   5.255186   0.000000
    11  H    4.475650   5.284367   6.014979   5.787868   0.956666
    12  H    3.527135   4.823240   5.443139   5.375245   0.956655
    13  O    3.621717   2.935253   3.259485   3.723795   3.630577
    14  H    3.562838   3.161895   3.202042   4.002541   4.371674
    15  H    4.271095   2.345491   2.777768   2.994568   4.038681
    16  Na   2.770620   2.335226   2.888921   3.064611   2.444841
                   11         12         13         14         15
    11  H    0.000000
    12  H    1.513572   0.000000
    13  O    4.192366   4.292568   0.000000
    14  H    5.012619   4.972490   0.956750   0.000000
    15  H    4.530996   4.643077   0.957278   1.514242   0.000000
    16  Na   3.229864   2.582923   2.454354   2.997773   2.558099
                   16
    16  Na   0.000000
 Stoichiometry    H10NaO5(1+)
 Framework group  C1[X(H10NaO5)]
 Deg. of freedom    42
 Full point group                 C1      NOp   1
 Largest Abelian subgroup         C1      NOp   1
 Largest concise Abelian subgroup C1      NOp   1
                         Standard orientation:                         
 ---------------------------------------------------------------------
 Center     Atomic      Atomic             Coordinates (Angstroms)
 Number     Number       Type             X           Y           Z
 ---------------------------------------------------------------------
      1          8           0       -1.568814   -1.687374   -0.562539
      2          1           0       -1.299755   -2.442522   -0.038179
      3          1           0       -2.453639   -1.486805   -0.257305
      4          8           0       -0.587735   -0.235279    1.930402
      5          1           0       -0.115340   -0.843215    2.498675
      6          1           0       -0.654835    0.569547    2.443793
      7          8           0        1.798596   -1.320362   -0.666754
      8          1           0        2.215345   -1.736099    0.088362
      9          1           0        2.003144   -1.898432   -1.401266
     10          8           0       -1.586542    1.876782   -0.709248
     11          1           0       -1.855087    2.415594   -1.452737
     12          1           0       -2.290543    1.236835   -0.609052
     13          8           0        1.935164    1.511316    0.093940
     14          1           0        2.450722    1.356352    0.884862
     15          1           0        2.344061    0.958867   -0.572381
     16         11           0       -0.024492    0.064474   -0.206471
 ---------------------------------------------------------------------
 Rotational constants (GHZ):           1.7301280           1.5156819           1.1813668
 Standard basis: Aug-CC-pVDZ (5D, 7F)
 There are   244 symmetry adapted cartesian basis functions of A   symmetry.
 There are   232 symmetry adapted basis functions of A   symmetry.
   232 basis functions,   406 primitive gaussians,   244 cartesian basis functions
    30 alpha electrons       30 beta electrons
       nuclear repulsion energy       307.4084458247 Hartrees.
 NAtoms=   16 NActive=   16 NUniq=   16 SFac= 1.00D+00 NAtFMM=   60 NAOKFM=F Big=F
 Integral buffers will be    131072 words long.
 Raffenetti 2 integral format.
 Two-electron integral symmetry is turned on.
 Nuclear repulsion after empirical dispersion term =      307.3999294036 Hartrees.
 One-electron integrals computed using PRISM.
 NBasis=   232 RedAO= T EigKep=  2.41D-04  NBF=   232
 NBsUse=   232 1.00D-06 EigRej= -1.00D+00 NBFU=   232
 ExpMin= 6.16D-03 ExpMax= 3.17D+04 ExpMxC= 1.08D+03 IAcc=3 IRadAn=         5 AccDes= 0.00D+00
 Harris functional with IExCor=  402 and IRadAn=       5 diagonalized for initial guess.
 HarFok:  IExCor=  402 AccDes= 0.00D+00 IRadAn=         5 IDoV= 1 UseB2=F ITyADJ=14
 ICtDFT=  3500011 ScaDFX=  1.000000  1.000000  1.000000  1.000000
 FoFCou: FMM=F IPFlag=           0 FMFlag=      100000 FMFlg1=           0
         NFxFlg=           0 DoJE=T BraDBF=F KetDBF=T FulRan=T
         wScrn=  0.000000 ICntrl=       500 IOpCl=  0 I1Cent=   200000004 NGrid=           0
         NMat0=    1 NMatS0=      1 NMatT0=    0 NMatD0=    1 NMtDS0=    0 NMtDT0=    0
 Petite list used in FoFCou.
 Requested convergence on RMS density matrix=1.00D-08 within 500 cycles.
 Requested convergence on MAX density matrix=1.00D-06.
 Requested convergence on             energy=1.00D-06.
 No special actions if energy rises.
 SCF Done:  E(RB3LYP) =  -544.439753587     A.U. after   10 cycles
            NFock= 10  Conv=0.66D-08     -V/T= 2.0054
 DoSCS=F DFT=T ScalE2(SS,OS)=  1.000000  1.000000
 Range of M.O.s used for correlation:     1   232
 NBasis=   232 NAE=    30 NBE=    30 NFC=     0 NFV=     0
 NROrb=    232 NOA=    30 NOB=    30 NVA=   202 NVB=   202

 **** Warning!!: The largest alpha MO coefficient is  0.14762357D+02

 Symmetrizing basis deriv contribution to polar:
 IMax=3 JMax=2 DiffMx= 0.00D+00
 G2DrvN: will do    17 centers at a time, making    1 passes.
 Calling FoFCou, ICntrl=  3107 FMM=F I1Cent=   0 AccDes= 1.00D-11.
 End of G2Drv F.D. properties file   721 does not exist.
 End of G2Drv F.D. properties file   722 does not exist.
 End of G2Drv F.D. properties file   788 does not exist.
          IDoAtm=1111111111111111
          Differentiating once with respect to electric field.
                with respect to dipole field.
          Differentiating once with respect to nuclear coordinates.
 Keep R1 ints in memory in canonical form, NReq=408195318.
          There are    51 degrees of freedom in the 1st order CPHF.  IDoFFX=6 NUNeed=     3.
     48 vectors produced by pass  0 Test12= 1.19D-14 1.96D-09 XBig12= 2.25D+01 9.82D-01.
 AX will form    48 AO Fock derivatives at one time.
     48 vectors produced by pass  1 Test12= 1.19D-14 1.96D-09 XBig12= 1.74D+00 1.88D-01.
     48 vectors produced by pass  2 Test12= 1.19D-14 1.96D-09 XBig12= 2.57D-02 2.43D-02.
     48 vectors produced by pass  3 Test12= 1.19D-14 1.96D-09 XBig12= 7.18D-05 1.04D-03.
     48 vectors produced by pass  4 Test12= 1.19D-14 1.96D-09 XBig12= 9.34D-08 4.24D-05.
     22 vectors produced by pass  5 Test12= 1.19D-14 1.96D-09 XBig12= 7.20D-11 1.15D-06.
      3 vectors produced by pass  6 Test12= 1.19D-14 1.96D-09 XBig12= 4.57D-14 2.21D-08.
 InvSVY:  IOpt=1 It=  1 EMax= 5.33D-15
 Solved reduced A of dimension   265 with    51 vectors.
 Isotropic polarizability for W=    0.000000       46.27 Bohr**3.
 End of Minotr F.D. properties file   721 does not exist.
 End of Minotr F.D. properties file   722 does not exist.
 End of Minotr F.D. properties file   788 does not exist.

 **********************************************************************

            Population analysis using the SCF Density.

 **********************************************************************

 Orbital symmetries:
       Occupied  (A) (A) (A) (A) (A) (A) (A) (A) (A) (A) (A) (A)
                 (A) (A) (A) (A) (A) (A) (A) (A) (A) (A) (A) (A)
                 (A) (A) (A) (A) (A) (A)
       Virtual   (A) (A) (A) (A) (A) (A) (A) (A) (A) (A) (A) (A)
                 (A) (A) (A) (A) (A) (A) (A) (A) (A) (A) (A) (A)
                 (A) (A) (A) (A) (A) (A) (A) (A) (A) (A) (A) (A)
                 (A) (A) (A) (A) (A) (A) (A) (A) (A) (A) (A) (A)
                 (A) (A) (A) (A) (A) (A) (A) (A) (A) (A) (A) (A)
                 (A) (A) (A) (A) (A) (A) (A) (A) (A) (A) (A) (A)
                 (A) (A) (A) (A) (A) (A) (A) (A) (A) (A) (A) (A)
                 (A) (A) (A) (A) (A) (A) (A) (A) (A) (A) (A) (A)
                 (A) (A) (A) (A) (A) (A) (A) (A) (A) (A) (A) (A)
                 (A) (A) (A) (A) (A) (A) (A) (A) (A) (A) (A) (A)
                 (A) (A) (A) (A) (A) (A) (A) (A) (A) (A) (A) (A)
                 (A) (A) (A) (A) (A) (A) (A) (A) (A) (A) (A) (A)
                 (A) (A) (A) (A) (A) (A) (A) (A) (A) (A) (A) (A)
                 (A) (A) (A) (A) (A) (A) (A) (A) (A) (A) (A) (A)
                 (A) (A) (A) (A) (A) (A) (A) (A) (A) (A) (A) (A)
                 (A) (A) (A) (A) (A) (A) (A) (A) (A) (A) (A) (A)
                 (A) (A) (A) (A) (A) (A) (A) (A) (A) (A)
 The electronic state is 1-A.
 Alpha  occ. eigenvalues --  -38.59194 -19.33752 -19.32994 -19.31910 -19.31033
 Alpha  occ. eigenvalues --  -19.30031  -2.32833  -1.26300  -1.26222  -1.26038
 Alpha  occ. eigenvalues --   -1.20488  -1.19777  -1.18623  -1.17712  -1.16812
 Alpha  occ. eigenvalues --   -0.71954  -0.71337  -0.70252  -0.69257  -0.68472
 Alpha  occ. eigenvalues --   -0.59528  -0.58622  -0.56954  -0.55841  -0.54459
 Alpha  occ. eigenvalues --   -0.50667  -0.50236  -0.48677  -0.47789  -0.46835
 Alpha virt. eigenvalues --   -0.18165  -0.15049  -0.13855  -0.12976  -0.10429
 Alpha virt. eigenvalues --   -0.09695  -0.08981  -0.07654  -0.07004  -0.06797
 Alpha virt. eigenvalues --   -0.05956  -0.05661  -0.05322  -0.05067  -0.04541
 Alpha virt. eigenvalues --   -0.04002  -0.03179  -0.01968  -0.01255  -0.00466
 Alpha virt. eigenvalues --   -0.00099   0.00082   0.00254   0.00847   0.01047
 Alpha virt. eigenvalues --    0.01308   0.01755   0.02669   0.02917   0.03295
 Alpha virt. eigenvalues --    0.03647   0.04540   0.04723   0.05706   0.06193
 Alpha virt. eigenvalues --    0.06419   0.06842   0.07006   0.07508   0.07634
 Alpha virt. eigenvalues --    0.08302   0.09542   0.10184   0.10828   0.12161
 Alpha virt. eigenvalues --    0.13528   0.14383   0.15161   0.15537   0.16850
 Alpha virt. eigenvalues --    0.17455   0.18447   0.19373   0.20050   0.20571
 Alpha virt. eigenvalues --    0.21391   0.21847   0.22752   0.23764   0.24073
 Alpha virt. eigenvalues --    0.25297   0.26324   0.28407   0.29705   0.30556
 Alpha virt. eigenvalues --    0.31024   0.31380   0.32295   0.32806   0.33473
 Alpha virt. eigenvalues --    0.33828   0.34403   0.35666   0.36084   0.36937
 Alpha virt. eigenvalues --    0.37655   0.38425   0.39153   0.39407   0.39988
 Alpha virt. eigenvalues --    0.41442   0.41855   0.42082   0.43385   0.44816
 Alpha virt. eigenvalues --    0.45362   0.46182   0.46437   0.48151   0.50673
 Alpha virt. eigenvalues --    0.52349   0.55791   0.57681   0.58974   0.60314
 Alpha virt. eigenvalues --    0.63160   0.64821   0.67844   0.70484   0.72004
 Alpha virt. eigenvalues --    0.73853   0.79305   0.80015   0.82122   0.82995
 Alpha virt. eigenvalues --    0.83923   0.85336   0.86276   0.87275   0.87859
 Alpha virt. eigenvalues --    0.90140   0.91639   0.92229   0.95402   0.97003
 Alpha virt. eigenvalues --    0.98777   1.01411   1.02690   1.04690   1.05311
 Alpha virt. eigenvalues --    1.08983   1.09971   1.12625   1.15616   1.17714
 Alpha virt. eigenvalues --    1.19651   1.19882   1.22490   1.27171   1.29456
 Alpha virt. eigenvalues --    1.30929   1.36499   1.39609   1.40613   1.50072
 Alpha virt. eigenvalues --    1.56999   1.61523   1.62216   1.64145   1.66172
 Alpha virt. eigenvalues --    1.66777   1.69300   1.69631   1.71148   1.74080
 Alpha virt. eigenvalues --    1.75842   1.78582   1.79945   1.82337   1.83681
 Alpha virt. eigenvalues --    1.86588   1.97909   1.99229   2.00765   2.02157
 Alpha virt. eigenvalues --    2.03269   2.03383   2.04667   2.05318   2.06168
 Alpha virt. eigenvalues --    2.08638   2.16217   2.17435   2.20208   2.23005
 Alpha virt. eigenvalues --    2.24203   2.30904   2.33237   2.35292   2.36834
 Alpha virt. eigenvalues --    2.38855   2.43149   2.60053   2.61693   2.65474
 Alpha virt. eigenvalues --    2.69264   2.71782   3.14977   3.15987   3.17264
 Alpha virt. eigenvalues --    3.18466   3.19740   3.19934   3.20856   3.21590
 Alpha virt. eigenvalues --    3.22207   3.23551   3.24377   3.26430   3.30817
 Alpha virt. eigenvalues --    3.31369   3.33865   3.50273   3.53413   3.55075
 Alpha virt. eigenvalues --    3.57198   3.58364   3.75688   3.76807   3.77559
 Alpha virt. eigenvalues --    3.81495   3.82992
          Condensed to atoms (all electrons):
               1          2          3          4          5          6
     1  O    7.537511   0.321025   0.329979  -0.010298  -0.000310   0.001855
     2  H    0.321025   0.636361  -0.088257   0.002837  -0.001892   0.000158
     3  H    0.329979  -0.088257   0.644813   0.004875   0.000483   0.000262
     4  O   -0.010298   0.002837   0.004875   7.735820   0.353852   0.341402
     5  H   -0.000310  -0.001892   0.000483   0.353852   0.595449  -0.101326
     6  H    0.001855   0.000158   0.000262   0.341402  -0.101326   0.584901
     7  O   -0.007594   0.006980   0.002099  -0.012220   0.001879   0.004359
     8  H    0.000878   0.000342   0.000289   0.001419  -0.001922   0.000063
     9  H    0.001509  -0.000640  -0.000607   0.000946   0.000054  -0.000147
    10  O   -0.005511  -0.000061  -0.002042  -0.009177   0.000028   0.004375
    11  H    0.001863   0.000096  -0.000408   0.000604   0.000236  -0.000551
    12  H   -0.008397  -0.000321   0.003839  -0.002605  -0.002038   0.001752
    13  O   -0.000612   0.000407   0.000106   0.002859   0.002237  -0.004274
    14  H    0.000744  -0.000063  -0.000021   0.005606  -0.000063  -0.001161
    15  H    0.000365   0.000230  -0.000284   0.000267   0.001393  -0.000728
    16  Na  -0.005649  -0.002431  -0.014358  -0.067478  -0.009829  -0.010529
               7          8          9         10         11         12
     1  O   -0.007594   0.000878   0.001509  -0.005511   0.001863  -0.008397
     2  H    0.006980   0.000342  -0.000640  -0.000061   0.000096  -0.000321
     3  H    0.002099   0.000289  -0.000607  -0.002042  -0.000408   0.003839
     4  O   -0.012220   0.001419   0.000946  -0.009177   0.000604  -0.002605
     5  H    0.001879  -0.001922   0.000054   0.000028   0.000236  -0.002038
     6  H    0.004359   0.000063  -0.000147   0.004375  -0.000551   0.001752
     7  O    7.907224   0.353287   0.298325   0.000704  -0.000326   0.003565
     8  H    0.353287   0.595233  -0.105800   0.000567  -0.000100   0.000029
     9  H    0.298325  -0.105800   0.577876   0.000491   0.000080  -0.000767
    10  O    0.000704   0.000567   0.000491   7.511263   0.336501   0.330522
    11  H   -0.000326  -0.000100   0.000080   0.336501   0.590045  -0.111419
    12  H    0.003565   0.000029  -0.000767   0.330522  -0.111419   0.655563
    13  O   -0.018365  -0.003820   0.002602  -0.017383   0.000696  -0.000910
    14  H   -0.000197   0.002171  -0.000334   0.001398  -0.000116   0.000050
    15  H    0.004924  -0.003545   0.000958  -0.002551   0.000806  -0.001322
    16  Na  -0.101410  -0.012464   0.013100   0.027070   0.020422  -0.013144
              13         14         15         16
     1  O   -0.000612   0.000744   0.000365  -0.005649
     2  H    0.000407  -0.000063   0.000230  -0.002431
     3  H    0.000106  -0.000021  -0.000284  -0.014358
     4  O    0.002859   0.005606   0.000267  -0.067478
     5  H    0.002237  -0.000063   0.001393  -0.009829
     6  H   -0.004274  -0.001161  -0.000728  -0.010529
     7  O   -0.018365  -0.000197   0.004924  -0.101410
     8  H   -0.003820   0.002171  -0.003545  -0.012464
     9  H    0.002602  -0.000334   0.000958   0.013100
    10  O   -0.017383   0.001398  -0.002551   0.027070
    11  H    0.000696  -0.000116   0.000806   0.020422
    12  H   -0.000910   0.000050  -0.001322  -0.013144
    13  O    7.542404   0.332949   0.268765   0.027654
    14  H    0.332949   0.624997  -0.082797   0.006316
    15  H    0.268765  -0.082797   0.610820   0.024768
    16  Na   0.027654   0.006316   0.024768  10.424332
 Mulliken charges:
               1
     1  O   -0.157359
     2  H    0.125230
     3  H    0.119232
     4  O   -0.348709
     5  H    0.161768
     6  H    0.179589
     7  O   -0.443233
     8  H    0.173374
     9  H    0.212353
    10  O   -0.176195
    11  H    0.161571
    12  H    0.145602
    13  O   -0.135312
    14  H    0.110524
    15  H    0.177933
    16  Na   0.693631
 Sum of Mulliken charges =   1.00000
 Mulliken charges with hydrogens summed into heavy atoms:
               1
     1  O    0.087104
     4  O   -0.007352
     7  O   -0.057506
    10  O    0.130979
    13  O    0.153145
    16  Na   0.693631
 APT charges:
               1
     1  O   -0.548242
     2  H    0.289049
     3  H    0.290300
     4  O   -0.548080
     5  H    0.288613
     6  H    0.297539
     7  O   -0.559047
     8  H    0.287332
     9  H    0.299744
    10  O   -0.537511
    11  H    0.298906
    12  H    0.263133
    13  O   -0.545255
    14  H    0.277518
    15  H    0.298237
    16  Na   0.847763
 Sum of APT charges =   1.00000
 APT charges with hydrogens summed into heavy atoms:
               1
     1  O    0.031108
     4  O    0.038072
     7  O    0.028029
    10  O    0.024528
    13  O    0.030500
    16  Na   0.847763
 Electronic spatial extent (au):  <R**2>=           1128.9876
 Charge=              1.0000 electrons
 Dipole moment (field-independent basis, Debye):
    X=              0.4977    Y=             -3.3874    Z=              1.5510  Tot=              3.7587
 Quadrupole moment (field-independent basis, Debye-Ang):
   XX=            -13.4918   YY=            -24.9906   ZZ=            -21.6765
   XY=             -7.4824   XZ=              2.3841   YZ=             -3.2863
 Traceless Quadrupole moment (field-independent basis, Debye-Ang):
   XX=              6.5612   YY=             -4.9376   ZZ=             -1.6236
   XY=             -7.4824   XZ=              2.3841   YZ=             -3.2863
 Octapole moment (field-independent basis, Debye-Ang**2):
  XXX=             -0.5331  YYY=            -28.7847  ZZZ=             21.6067  XYY=             -3.8142
  XXY=             -9.5053  XXZ=             -7.4183  XZZ=              6.5232  YZZ=              6.6147
  YYZ=             -5.3186  XYZ=             16.4065
 Hexadecapole moment (field-independent basis, Debye-Ang**3):
 XXXX=           -376.7537 YYYY=           -375.6526 ZZZZ=           -151.6920 XXXY=            -22.6695
 XXXZ=             27.9884 YYYX=            -48.1498 YYYZ=            -28.0878 ZZZX=             -4.8944
 ZZZY=             -6.4155 XXYY=           -104.1495 XXZZ=           -105.8112 YYZZ=            -75.4064
 XXYZ=             -4.9840 YYXZ=              8.5386 ZZXY=            -32.3868
 N-N= 3.073999294036D+02 E-N=-1.897742988539D+03  KE= 5.415116851953D+02
  Exact polarizability:  46.315  -0.309  47.538   0.393  -0.009  44.952
 Approx polarizability:  54.349  -2.019  56.685   1.192  -1.084  56.510
 Calling FoFJK, ICntrl=    100127 FMM=F ISym2X=0 I1Cent= 0 IOpClX= 0 NMat=1 NMatS=1 NMatT=0.
 ***** Axes restored to original set *****
 -------------------------------------------------------------------
 Center     Atomic                   Forces (Hartrees/Bohr)
 Number     Number              X              Y              Z
 -------------------------------------------------------------------
      1        8           0.004516683    0.010071994    0.003884546
      2        1           0.002502652   -0.006230436   -0.005423275
      3        1          -0.009102947   -0.003993493   -0.000644468
      4        8          -0.000586652    0.003339909   -0.003630333
      5        1           0.003979540   -0.008977553   -0.001987476
      6        1          -0.003193332   -0.001400370    0.010945964
      7        8          -0.005622091    0.000817219    0.005188997
      8        1           0.006980346   -0.006423911    0.000547037
      9        1           0.001237325    0.005487689   -0.009325017
     10        8           0.012990497   -0.008234330   -0.003417801
     11        1          -0.002809111    0.009577996    0.002730461
     12        1          -0.011743007   -0.003644264   -0.002076856
     13        8          -0.013846340   -0.001123801    0.000336966
     14        1           0.006942877   -0.004148243    0.005940717
     15        1           0.008997755    0.005844457   -0.006029142
     16       11          -0.001244193    0.009037138    0.002959681
 -------------------------------------------------------------------
 Cartesian Forces:  Max     0.013846340 RMS     0.006264726

 GradGradGradGradGradGradGradGradGradGradGradGradGradGradGradGradGradGrad
 Berny optimization.
 Search for a local minimum.
 Step number   1 out of a maximum of  500
 All quantities printed in internal units (Hartrees-Bohrs-Radians)
 Second derivative matrix not updated -- analytic derivatives used.
 ITU=  0
     Eigenvalues ---   -0.00798  -0.00721  -0.00669  -0.00516  -0.00476
     Eigenvalues ---   -0.00391  -0.00337  -0.00316  -0.00283  -0.00232
     Eigenvalues ---   -0.00198  -0.00167  -0.00075  -0.00047  -0.00021
     Eigenvalues ---    0.00092   0.00139   0.00360   0.00366   0.00496
     Eigenvalues ---    0.00733   0.00912   0.01285   0.01536   0.03171
     Eigenvalues ---    0.03993   0.05565   0.14993   0.15641   0.15824
     Eigenvalues ---    0.16351   0.16397   0.84722   0.88112   0.92923
     Eigenvalues ---    0.96103   0.96786   1.08831   1.10575   1.18922
     Eigenvalues ---    1.25180   1.26757
 RFO step:  Lambda=-1.69910853D-02 EMin=-7.98267769D-03
 Linear search not attempted -- first point.
 Maximum step size (   0.100) exceeded in Quadratic search.
    -- Step size scaled by   0.130
 B after Tr=     0.000386    0.002238   -0.000084
         Rot=    1.000000    0.000395   -0.000049   -0.000177 Ang=   0.05 deg.
 Variable       Old X    -DE/DX   Delta X   Delta X   Delta X     New X
                                 (Linear)    (Quad)   (Total)
    X1       -2.44342   0.00452   0.00000  -0.00430  -0.00369  -2.44711
    Y1       -1.57242   0.01007   0.00000   0.00397   0.00268  -1.56975
    Z1       -3.38913   0.00388   0.00000   0.01948   0.02088  -3.36825
    X2       -1.61007   0.00250   0.00000  -0.00075   0.00030  -1.60976
    Y2       -3.02562  -0.00623   0.00000   0.01555   0.01399  -3.01163
    Z2       -4.07508  -0.00542   0.00000  -0.00592  -0.00347  -4.07855
    X3       -4.07236  -0.00910   0.00000  -0.00539  -0.00451  -4.07687
    Y3       -2.17902  -0.00399   0.00000  -0.00994  -0.01142  -2.19045
    Z3       -2.88835  -0.00064   0.00000   0.00592   0.00797  -2.88038
    X4       -0.47529  -0.00059   0.00000   0.01516   0.01709  -0.45820
    Y4       -3.91326   0.00334   0.00000   0.00494   0.00820  -3.90507
    Z4        1.49014  -0.00363   0.00000   0.00782   0.01087   1.50101
    X5        0.70296   0.00398   0.00000  -0.01543  -0.01307   0.68989
    Y5       -5.23191  -0.00898   0.00000  -0.02014  -0.01679  -5.24870
    Z5        1.11220  -0.00199   0.00000  -0.00782  -0.00382   1.10838
    X6       -0.71358  -0.00319   0.00000   0.00334   0.00548  -0.70810
    Y6       -4.01831  -0.00140   0.00000  -0.01291  -0.00832  -4.02664
    Z6        3.27973   0.01095   0.00000   0.00712   0.01029   3.29003
    X7        3.67210  -0.00562   0.00000  -0.00003   0.00009   3.67218
    Y7        0.07833   0.00082   0.00000   0.00038   0.00199   0.08032
    Z7       -2.44614   0.00519   0.00000   0.00069   0.00018  -2.44596
    X8        4.73450   0.00698   0.00000  -0.00086  -0.00021   4.73429
    Y8       -1.38241  -0.00642   0.00000  -0.00351  -0.00145  -1.38386
    Z8       -2.34031   0.00055   0.00000  -0.01115  -0.01061  -2.35092
    X9        4.05042   0.00124   0.00000   0.00580   0.00550   4.05592
    Y9        0.79644   0.00549   0.00000   0.02010   0.02057   0.81701
    Z9       -4.06185  -0.00933   0.00000   0.00844   0.00731  -4.05454
   X10       -3.52812   0.01299   0.00000  -0.00461  -0.00469  -3.53281
   Y10        1.95851  -0.00823   0.00000  -0.01284  -0.01011   1.94840
   Z10        2.24983  -0.00342   0.00000  -0.03628  -0.03755   2.21228
   X11       -4.34826  -0.00281   0.00000   0.00629   0.00565  -4.34261
   Y11        3.56478   0.00958   0.00000  -0.00742  -0.00485   3.55993
   Z11        2.37454   0.00273   0.00000   0.00148  -0.00099   2.37355
   X12       -4.62794  -0.01174   0.00000  -0.04242  -0.04226  -4.67019
   Y12        0.96546  -0.00364   0.00000  -0.00083   0.00070   0.96616
   Z12        1.21424  -0.00208   0.00000  -0.01021  -0.01060   1.20365
   X13        3.28812  -0.01385   0.00000   0.00770   0.00783   3.29595
   Y13        1.52066  -0.00112   0.00000  -0.00833  -0.00265   1.51802
   Z13        2.89610   0.00034   0.00000  -0.01326  -0.01487   2.88123
   X14        4.46731   0.00694   0.00000  -0.00114  -0.00050   4.46681
   Y14        0.27722  -0.00415   0.00000  -0.00493   0.00165   0.27887
   Z14        3.47249   0.00594   0.00000   0.01909   0.01835   3.49084
   X15        4.05346   0.00900   0.00000   0.03366   0.03341   4.08687
   Y15        2.22194   0.00584   0.00000  -0.02664  -0.02184   2.20010
   Z15        1.41457  -0.00603   0.00000  -0.01134  -0.01356   1.40101
   X16        0.00000  -0.00124   0.00000  -0.00678  -0.00640  -0.00640
   Y16        0.00000   0.00904   0.00000   0.02542   0.02767   0.02767
   Z16       -0.00000   0.00296   0.00000   0.01970   0.01960   0.01960
         Item               Value     Threshold  Converged?
 Maximum Force            0.013846     0.000450     NO 
 RMS     Force            0.006265     0.000300     NO 
 Maximum Displacement     0.042255     0.001800     NO 
 RMS     Displacement     0.014245     0.001200     NO 
 Predicted change in Energy=-1.484102D-03
 GradGradGradGradGradGradGradGradGradGradGradGradGradGradGradGradGradGrad

                          Input orientation:                          
 ---------------------------------------------------------------------
 Center     Atomic      Atomic             Coordinates (Angstroms)
 Number     Number       Type             X           Y           Z
 ---------------------------------------------------------------------
      1          8           0       -1.294953   -0.830673   -1.782399
      2          1           0       -0.851851   -1.593688   -2.158275
      3          1           0       -2.157388   -1.159135   -1.524230
      4          8           0       -0.242469   -2.066472    0.794303
      5          1           0        0.365073   -2.777493    0.586528
      6          1           0       -0.374712   -2.130804    1.741007
      7          8           0        1.943236    0.042503   -1.294346
      8          1           0        2.505276   -0.732310   -1.244053
      9          1           0        2.146301    0.432344   -2.145571
     10          8           0       -1.869484    1.031049    1.170687
     11          1           0       -2.298008    1.883834    1.256027
     12          1           0       -2.471360    0.511269    0.636942
     13          8           0        1.744144    0.803300    1.524683
     14          1           0        2.363734    0.147573    1.847271
     15          1           0        2.162678    1.164240    0.741384
     16         11           0       -0.003385    0.014643    0.010371
 ---------------------------------------------------------------------
                    Distance matrix (angstroms):
                    1          2          3          4          5
     1  O    0.000000
     2  H    0.959069   0.000000
     3  H    0.958297   1.515017   0.000000
     4  O    3.045376   3.051653   3.140983   0.000000
     5  H    3.486776   3.227420   3.665678   0.958033   0.000000
     6  H    3.866727   3.964916   3.844978   0.958059   1.516018
     7  O    3.389174   3.352015   4.279240   3.686127   3.739072
     8  H    3.839431   3.584421   4.690535   3.672191   3.480557
     9  H    3.683658   3.618547   4.630401   4.537969   4.576045
    10  O    3.537911   4.359680   3.484591   3.519017   4.454153
    11  H    4.196034   5.083501   4.124229   4.476980   5.410009
    12  H    3.006319   3.855761   2.749453   3.411374   4.343254
    13  O    4.779411   5.103814   5.326253   3.565904   3.950196
    14  H    5.245709   5.423687   5.789219   3.578133   3.760337
    15  H    4.722751   5.010147   5.403152   4.028031   4.335046
    16  Na   2.365741   2.830132   2.893525   2.236683   2.874672
                    6          7          8          9         10
     6  H    0.000000
     7  O    4.394259   0.000000
     8  H    4.377295   0.958516   0.000000
     9  H    5.294405   0.958016   1.515921   0.000000
    10  O    3.543576   4.646552   5.298956   5.242379   0.000000
    11  H    4.477901   5.280440   6.013830   5.781831   0.958205
    12  H    3.549007   4.841309   5.463657   5.391790   0.957763
    13  O    3.625647   2.926666   3.256274   3.710808   3.638061
    14  H    3.563900   3.171375   3.217222   4.008885   4.377034
    15  H    4.277256   2.334662   2.766991   2.978330   4.057138
    16  Na   2.781354   2.343586   2.902568   3.073062   2.421103
                   11         12         13         14         15
    11  H    0.000000
    12  H    1.515668   0.000000
    13  O    4.192699   4.317851   0.000000
    14  H    5.009592   4.997530   0.958088   0.000000
    15  H    4.547570   4.680982   0.958648   1.515593   0.000000
    16  Na   3.211048   2.594249   2.443149   2.999187   2.558864
                   16
    16  Na   0.000000
 Stoichiometry    H10NaO5(1+)
 Framework group  C1[X(H10NaO5)]
 Deg. of freedom    42
 Full point group                 C1      NOp   1
 Largest Abelian subgroup         C1      NOp   1
 Largest concise Abelian subgroup C1      NOp   1
                         Standard orientation:                         
 ---------------------------------------------------------------------
 Center     Atomic      Atomic             Coordinates (Angstroms)
 Number     Number       Type             X           Y           Z
 ---------------------------------------------------------------------
      1          8           0       -1.566350   -1.683048   -0.554563
      2          1           0       -1.291639   -2.446080   -0.042577
      3          1           0       -2.453427   -1.494929   -0.244662
      4          8           0       -0.574122   -0.234051    1.933449
      5          1           0       -0.117240   -0.851619    2.505897
      6          1           0       -0.650378    0.566613    2.454024
      7          8           0        1.800819   -1.315174   -0.670080
      8          1           0        2.219473   -1.735799    0.082619
      9          1           0        2.010587   -1.884517   -1.411457
     10          8           0       -1.599501    1.851330   -0.709138
     11          1           0       -1.863993    2.406888   -1.443683
     12          1           0       -2.318804    1.227093   -0.607931
     13          8           0        1.932919    1.507832    0.090553
     14          1           0        2.447769    1.370901    0.886864
     15          1           0        2.353823    0.950672   -0.566272
     16         11           0       -0.026027    0.079606   -0.212235
 ---------------------------------------------------------------------
 Rotational constants (GHZ):           1.7413965           1.5124396           1.1859450
 Standard basis: Aug-CC-pVDZ (5D, 7F)
 There are   244 symmetry adapted cartesian basis functions of A   symmetry.
 There are   232 symmetry adapted basis functions of A   symmetry.
   232 basis functions,   406 primitive gaussians,   244 cartesian basis functions
    30 alpha electrons       30 beta electrons
       nuclear repulsion energy       307.5863354277 Hartrees.
 NAtoms=   16 NActive=   16 NUniq=   16 SFac= 1.00D+00 NAtFMM=   60 NAOKFM=F Big=F
 Integral buffers will be    131072 words long.
 Raffenetti 2 integral format.
 Two-electron integral symmetry is turned on.
 Nuclear repulsion after empirical dispersion term =      307.5778218122 Hartrees.
 One-electron integrals computed using PRISM.
 NBasis=   232 RedAO= T EigKep=  2.39D-04  NBF=   232
 NBsUse=   232 1.00D-06 EigRej= -1.00D+00 NBFU=   232
 Initial guess from the checkpoint file:  "sim006_type3_coord-5_3-2-0_10C_b1_id81756_step1780.chk"
 B after Tr=     0.000000    0.000000   -0.000000
         Rot=    0.999998    0.000415   -0.001444   -0.001601 Ang=   0.25 deg.
 ExpMin= 6.16D-03 ExpMax= 3.17D+04 ExpMxC= 1.08D+03 IAcc=3 IRadAn=         5 AccDes= 0.00D+00
 Harris functional with IExCor=  402 and IRadAn=       5 diagonalized for initial guess.
 HarFok:  IExCor=  402 AccDes= 0.00D+00 IRadAn=         5 IDoV= 1 UseB2=F ITyADJ=14
 ICtDFT=  3500011 ScaDFX=  1.000000  1.000000  1.000000  1.000000
 FoFCou: FMM=F IPFlag=           0 FMFlag=      100000 FMFlg1=           0
         NFxFlg=           0 DoJE=T BraDBF=F KetDBF=T FulRan=T
         wScrn=  0.000000 ICntrl=       500 IOpCl=  0 I1Cent=   200000004 NGrid=           0
         NMat0=    1 NMatS0=      1 NMatT0=    0 NMatD0=    1 NMtDS0=    0 NMtDT0=    0
 Petite list used in FoFCou.
 Requested convergence on RMS density matrix=1.00D-08 within 500 cycles.
 Requested convergence on MAX density matrix=1.00D-06.
 Requested convergence on             energy=1.00D-06.
 No special actions if energy rises.
 SCF Done:  E(RB3LYP) =  -544.441233718     A.U. after    8 cycles
            NFock=  8  Conv=0.54D-08     -V/T= 2.0054
 DoSCS=F DFT=T ScalE2(SS,OS)=  1.000000  1.000000
 Range of M.O.s used for correlation:     1   232
 NBasis=   232 NAE=    30 NBE=    30 NFC=     0 NFV=     0
 NROrb=    232 NOA=    30 NOB=    30 NVA=   202 NVB=   202

 **** Warning!!: The largest alpha MO coefficient is  0.15017735D+02

 Symmetrizing basis deriv contribution to polar:
 IMax=3 JMax=2 DiffMx= 0.00D+00
 G2DrvN: will do    17 centers at a time, making    1 passes.
 Calling FoFCou, ICntrl=  3107 FMM=F I1Cent=   0 AccDes= 1.00D-11.
 End of G2Drv F.D. properties file   721 does not exist.
 End of G2Drv F.D. properties file   722 does not exist.
 End of G2Drv F.D. properties file   788 does not exist.
          IDoAtm=1111111111111111
          Differentiating once with respect to electric field.
                with respect to dipole field.
          Differentiating once with respect to nuclear coordinates.
 Keep R1 ints in memory in canonical form, NReq=408195318.
          There are    51 degrees of freedom in the 1st order CPHF.  IDoFFX=6 NUNeed=     3.
     48 vectors produced by pass  0 Test12= 1.19D-14 1.96D-09 XBig12= 2.25D+01 9.92D-01.
 AX will form    48 AO Fock derivatives at one time.
     48 vectors produced by pass  1 Test12= 1.19D-14 1.96D-09 XBig12= 1.75D+00 1.87D-01.
     48 vectors produced by pass  2 Test12= 1.19D-14 1.96D-09 XBig12= 2.52D-02 2.39D-02.
     48 vectors produced by pass  3 Test12= 1.19D-14 1.96D-09 XBig12= 6.67D-05 9.91D-04.
     48 vectors produced by pass  4 Test12= 1.19D-14 1.96D-09 XBig12= 8.48D-08 4.12D-05.
     23 vectors produced by pass  5 Test12= 1.19D-14 1.96D-09 XBig12= 6.55D-11 1.09D-06.
      3 vectors produced by pass  6 Test12= 1.19D-14 1.96D-09 XBig12= 4.25D-14 2.11D-08.
 InvSVY:  IOpt=1 It=  1 EMax= 1.78D-15
 Solved reduced A of dimension   266 with    51 vectors.
 Isotropic polarizability for W=    0.000000       46.32 Bohr**3.
 End of Minotr F.D. properties file   721 does not exist.
 End of Minotr F.D. properties file   722 does not exist.
 End of Minotr F.D. properties file   788 does not exist.
 Calling FoFJK, ICntrl=    100127 FMM=F ISym2X=0 I1Cent= 0 IOpClX= 0 NMat=1 NMatS=1 NMatT=0.
 ***** Axes restored to original set *****
 -------------------------------------------------------------------
 Center     Atomic                   Forces (Hartrees/Bohr)
 Number     Number              X              Y              Z
 -------------------------------------------------------------------
      1        8           0.003959943    0.008600638    0.003618775
      2        1           0.002115694   -0.005090587   -0.004977471
      3        1          -0.008027910   -0.003548228   -0.000831367
      4        8          -0.000062548    0.002757221   -0.002880865
      5        1           0.003110610   -0.007950870   -0.001641085
      6        1          -0.002843924   -0.001466004    0.009671414
      7        8          -0.004903036    0.000628617    0.004223797
      8        1           0.006210295   -0.005536097    0.000334056
      9        1           0.001092386    0.004852468   -0.008171613
     10        8           0.011180998   -0.007169728   -0.003825550
     11        1          -0.001981082    0.008051628    0.002736505
     12        1          -0.010779681   -0.002959161   -0.001422269
     13        8          -0.012067334   -0.001190252   -0.000168283
     14        1           0.005793781   -0.003246021    0.005630101
     15        1           0.008316408    0.005084511   -0.005002201
     16       11          -0.001114599    0.008181867    0.002706057
 -------------------------------------------------------------------
 Cartesian Forces:  Max     0.012067334 RMS     0.005489980

 GradGradGradGradGradGradGradGradGradGradGradGradGradGradGradGradGradGrad
 Berny optimization.
 Search for a local minimum.
 Step number   2 out of a maximum of  500
 All quantities printed in internal units (Hartrees-Bohrs-Radians)
 Second derivative matrix not updated -- analytic derivatives used.
 DE= -1.48D-03 DEPred=-1.48D-03 R= 9.97D-01
 TightC=F SS=  1.41D+00  RLast= 9.87D-02 DXNew= 1.6818D-01 2.9608D-01
 Trust test= 9.97D-01 RLast= 9.87D-02 DXMaxT set to 1.68D-01
 ITU=  1  0
 Linear search step of   0.197 exceeds DXMaxT=   0.168 but not scaled.
 Quartic linear search produced a step of  2.00000.
 B after Tr=     0.000000    0.000000    0.000000
         Rot=    1.000000    0.000000    0.000000    0.000000 Ang=   0.00 deg.
 Variable       Old X    -DE/DX   Delta X   Delta X   Delta X     New X
                                 (Linear)    (Quad)   (Total)
    X1       -2.44711   0.00396  -0.00738   0.00000  -0.00738  -2.45449
    Y1       -1.56975   0.00860   0.00535   0.00000   0.00535  -1.56439
    Z1       -3.36825   0.00362   0.04177   0.00000   0.04177  -3.32648
    X2       -1.60976   0.00212   0.00060   0.00000   0.00060  -1.60916
    Y2       -3.01163  -0.00509   0.02797   0.00000   0.02797  -2.98366
    Z2       -4.07855  -0.00498  -0.00693   0.00000  -0.00693  -4.08548
    X3       -4.07687  -0.00803  -0.00903   0.00000  -0.00903  -4.08590
    Y3       -2.19045  -0.00355  -0.02285   0.00000  -0.02285  -2.21330
    Z3       -2.88038  -0.00083   0.01595   0.00000   0.01595  -2.86443
    X4       -0.45820  -0.00006   0.03417   0.00000   0.03417  -0.42403
    Y4       -3.90507   0.00276   0.01639   0.00000   0.01639  -3.88867
    Z4        1.50101  -0.00288   0.02174   0.00000   0.02174   1.52276
    X5        0.68989   0.00311  -0.02614   0.00000  -0.02614   0.66374
    Y5       -5.24870  -0.00795  -0.03357   0.00000  -0.03357  -5.28227
    Z5        1.10838  -0.00164  -0.00764   0.00000  -0.00764   1.10073
    X6       -0.70810  -0.00284   0.01095   0.00000   0.01095  -0.69715
    Y6       -4.02664  -0.00147  -0.01665   0.00000  -0.01665  -4.04328
    Z6        3.29003   0.00967   0.02059   0.00000   0.02059   3.31062
    X7        3.67218  -0.00490   0.00017   0.00000   0.00017   3.67236
    Y7        0.08032   0.00063   0.00398   0.00000   0.00398   0.08430
    Z7       -2.44596   0.00422   0.00036   0.00000   0.00036  -2.44560
    X8        4.73429   0.00621  -0.00043   0.00000  -0.00043   4.73386
    Y8       -1.38386  -0.00554  -0.00291   0.00000  -0.00291  -1.38677
    Z8       -2.35092   0.00033  -0.02122   0.00000  -0.02122  -2.37214
    X9        4.05592   0.00109   0.01100   0.00000   0.01100   4.06692
    Y9        0.81701   0.00485   0.04114   0.00000   0.04114   0.85815
    Z9       -4.05454  -0.00817   0.01462   0.00000   0.01462  -4.03992
   X10       -3.53281   0.01118  -0.00939   0.00000  -0.00939  -3.54220
   Y10        1.94840  -0.00717  -0.02022   0.00000  -0.02022   1.92818
   Z10        2.21228  -0.00383  -0.07511   0.00000  -0.07511   2.13717
   X11       -4.34261  -0.00198   0.01131   0.00000   0.01131  -4.33130
   Y11        3.55993   0.00805  -0.00970   0.00000  -0.00970   3.55023
   Z11        2.37355   0.00274  -0.00198   0.00000  -0.00198   2.37157
   X12       -4.67019  -0.01078  -0.08451   0.00000  -0.08451  -4.75470
   Y12        0.96616  -0.00296   0.00140   0.00000   0.00140   0.96755
   Z12        1.20365  -0.00142  -0.02120   0.00000  -0.02120   1.18245
   X13        3.29595  -0.01207   0.01566   0.00000   0.01566   3.31162
   Y13        1.51802  -0.00119  -0.00529   0.00000  -0.00529   1.51272
   Z13        2.88123  -0.00017  -0.02973   0.00000  -0.02973   2.85150
   X14        4.46681   0.00579  -0.00101   0.00000  -0.00101   4.46580
   Y14        0.27887  -0.00325   0.00330   0.00000   0.00330   0.28217
   Z14        3.49084   0.00563   0.03670   0.00000   0.03670   3.52754
   X15        4.08687   0.00832   0.06681   0.00000   0.06681   4.15368
   Y15        2.20010   0.00508  -0.04369   0.00000  -0.04369   2.15641
   Z15        1.40101  -0.00500  -0.02712   0.00000  -0.02712   1.37389
   X16       -0.00640  -0.00111  -0.01279   0.00000  -0.01279  -0.01919
   Y16        0.02767   0.00818   0.05534   0.00000   0.05534   0.08301
   Z16        0.01960   0.00271   0.03920   0.00000   0.03920   0.05880
         Item               Value     Threshold  Converged?
 Maximum Force            0.012067     0.000450     NO 
 RMS     Force            0.005490     0.000300     NO 
 Maximum Displacement     0.084510     0.001800     NO 
 RMS     Displacement     0.028491     0.001200     NO 
 Predicted change in Energy=-2.723494D-03
 GradGradGradGradGradGradGradGradGradGradGradGradGradGradGradGradGradGrad

                          Input orientation:                          
 ---------------------------------------------------------------------
 Center     Atomic      Atomic             Coordinates (Angstroms)
 Number     Number       Type             X           Y           Z
 ---------------------------------------------------------------------
      1          8           0       -1.298859   -0.827840   -1.760297
      2          1           0       -0.851533   -1.578885   -2.161945
      3          1           0       -2.162165   -1.171225   -1.515790
      4          8           0       -0.224387   -2.057796    0.805808
      5          1           0        0.351239   -2.795259    0.582483
      6          1           0       -0.368916   -2.139613    1.751902
      7          8           0        1.943327    0.044609   -1.294158
      8          1           0        2.505049   -0.733849   -1.255280
      9          1           0        2.152122    0.454113   -2.137832
     10          8           0       -1.874452    1.020348    1.130942
     11          1           0       -2.292025    1.878701    1.254981
     12          1           0       -2.516081    0.512008    0.625726
     13          8           0        1.752432    0.800499    1.508948
     14          1           0        2.363202    0.149320    1.866694
     15          1           0        2.198034    1.141121    0.727032
     16         11           0       -0.010156    0.043929    0.031114
 ---------------------------------------------------------------------
                    Distance matrix (angstroms):
                    1          2          3          4          5
     1  O    0.000000
     2  H    0.962023   0.000000
     3  H    0.960726   1.517056   0.000000
     4  O    3.041740   3.070867   3.151320   0.000000
     5  H    3.475943   3.233900   3.654783   0.961805   0.000000
     6  H    3.862782   3.983156   3.851147   0.960561   1.521852
     7  O    3.389723   3.346644   4.287474   3.678172   3.757842
     8  H    3.838436   3.578095   4.694896   3.667525   3.502240
     9  H    3.700703   3.627065   4.652068   4.541200   4.604532
    10  O    3.479421   4.318041   3.448328   3.507620   4.451220
    11  H    4.171768   5.070039   4.122631   4.469105   5.411562
    12  H    2.994984   3.861821   2.746748   3.447925   4.377374
    13  O    4.759183   5.090928   5.325486   3.545711   3.968772
    14  H    5.246007   5.436095   5.802067   3.562647   3.790480
    15  H    4.721427   5.004445   5.421119   4.013402   4.350475
    16  Na   2.372739   2.854986   2.915589   2.250176   2.914722
                    6          7          8          9         10
     6  H    0.000000
     7  O    4.404064   0.000000
     8  H    4.390785   0.960749   0.000000
     9  H    5.311599   0.960768   1.521416   0.000000
    10  O    3.554939   4.626944   5.286898   5.217164   0.000000
    11  H    4.482425   5.272590   6.011551   5.769842   0.962560
    12  H    3.593006   4.877575   5.504733   5.425193   0.961946
    13  O    3.633648   2.909504   3.249863   3.684934   3.653150
    14  H    3.566071   3.190336   3.247588   4.021651   4.388363
    15  H    4.289849   2.313531   2.745785   2.946444   4.094249
    16  Na   2.803155   2.360602   2.930189   3.089988   2.374577
                   11         12         13         14         15
    11  H    0.000000
    12  H    1.521188   0.000000
    13  O    4.193405   4.368468   0.000000
    14  H    5.003607   5.047667   0.961798   0.000000
    15  H    4.580762   4.756987   0.962277   1.519795   0.000000
    16  Na   3.173510   2.617694   2.421385   3.002213   2.562076
                   16
    16  Na   0.000000
 Stoichiometry    H10NaO5(1+)
 Framework group  C1[X(H10NaO5)]
 Deg. of freedom    42
 Full point group                 C1      NOp   1
 Largest Abelian subgroup         C1      NOp   1
 Largest concise Abelian subgroup C1      NOp   1
                         Standard orientation:                         
 ---------------------------------------------------------------------
 Center     Atomic      Atomic             Coordinates (Angstroms)
 Number     Number       Type             X           Y           Z
 ---------------------------------------------------------------------
      1          8           0       -1.563188   -1.672783   -0.538665
      2          1           0       -1.277956   -2.451784   -0.051543
      3          1           0       -2.454350   -1.508720   -0.219434
      4          8           0       -0.547148   -0.230918    1.939412
      5          1           0       -0.121694   -0.868559    2.520337
      6          1           0       -0.640745    0.561308    2.474477
      7          8           0        1.803865   -1.306599   -0.676805
      8          1           0        2.225968   -1.737456    0.071012
      9          1           0        2.023272   -1.858561   -1.431970
     10          8           0       -1.623153    1.801959   -0.708799
     11          1           0       -1.879161    2.391385   -1.425430
     12          1           0       -2.373981    1.209595   -0.605345
     13          8           0        1.930073    1.498884    0.083818
     14          1           0        2.443142    1.397398    0.890983
     15          1           0        2.374628    0.932066   -0.554198
     16         11           0       -0.029338    0.109908   -0.223688
 ---------------------------------------------------------------------
 Rotational constants (GHZ):           1.7638369           1.5057991           1.1948809
 Standard basis: Aug-CC-pVDZ (5D, 7F)
 There are   244 symmetry adapted cartesian basis functions of A   symmetry.
 There are   232 symmetry adapted basis functions of A   symmetry.
   232 basis functions,   406 primitive gaussians,   244 cartesian basis functions
    30 alpha electrons       30 beta electrons
       nuclear repulsion energy       307.8985779351 Hartrees.
 NAtoms=   16 NActive=   16 NUniq=   16 SFac= 1.00D+00 NAtFMM=   60 NAOKFM=F Big=F
 Integral buffers will be    131072 words long.
 Raffenetti 2 integral format.
 Two-electron integral symmetry is turned on.
 Nuclear repulsion after empirical dispersion term =      307.8900585828 Hartrees.
 One-electron integrals computed using PRISM.
 NBasis=   232 RedAO= T EigKep=  2.35D-04  NBF=   232
 NBsUse=   232 1.00D-06 EigRej= -1.00D+00 NBFU=   232
 Initial guess from the checkpoint file:  "sim006_type3_coord-5_3-2-0_10C_b1_id81756_step1780.chk"
 B after Tr=    -0.000000   -0.000000   -0.000000
         Rot=    0.999992    0.000820   -0.002881   -0.002691 Ang=   0.46 deg.
 ExpMin= 6.16D-03 ExpMax= 3.17D+04 ExpMxC= 1.08D+03 IAcc=3 IRadAn=         5 AccDes= 0.00D+00
 Harris functional with IExCor=  402 and IRadAn=       5 diagonalized for initial guess.
 HarFok:  IExCor=  402 AccDes= 0.00D+00 IRadAn=         5 IDoV= 1 UseB2=F ITyADJ=14
 ICtDFT=  3500011 ScaDFX=  1.000000  1.000000  1.000000  1.000000
 FoFCou: FMM=F IPFlag=           0 FMFlag=      100000 FMFlg1=           0
         NFxFlg=           0 DoJE=T BraDBF=F KetDBF=T FulRan=T
         wScrn=  0.000000 ICntrl=       500 IOpCl=  0 I1Cent=   200000004 NGrid=           0
         NMat0=    1 NMatS0=      1 NMatT0=    0 NMatD0=    1 NMtDS0=    0 NMtDT0=    0
 Petite list used in FoFCou.
 Requested convergence on RMS density matrix=1.00D-08 within 500 cycles.
 Requested convergence on MAX density matrix=1.00D-06.
 Requested convergence on             energy=1.00D-06.
 No special actions if energy rises.
 SCF Done:  E(RB3LYP) =  -544.443914380     A.U. after    9 cycles
            NFock=  9  Conv=0.24D-08     -V/T= 2.0056
 DoSCS=F DFT=T ScalE2(SS,OS)=  1.000000  1.000000
 Range of M.O.s used for correlation:     1   232
 NBasis=   232 NAE=    30 NBE=    30 NFC=     0 NFV=     0
 NROrb=    232 NOA=    30 NOB=    30 NVA=   202 NVB=   202

 **** Warning!!: The largest alpha MO coefficient is  0.15374012D+02

 Symmetrizing basis deriv contribution to polar:
 IMax=3 JMax=2 DiffMx= 0.00D+00
 G2DrvN: will do    17 centers at a time, making    1 passes.
 Calling FoFCou, ICntrl=  3107 FMM=F I1Cent=   0 AccDes= 1.00D-11.
 End of G2Drv F.D. properties file   721 does not exist.
 End of G2Drv F.D. properties file   722 does not exist.
 End of G2Drv F.D. properties file   788 does not exist.
          IDoAtm=1111111111111111
          Differentiating once with respect to electric field.
                with respect to dipole field.
          Differentiating once with respect to nuclear coordinates.
 Keep R1 ints in memory in canonical form, NReq=408195318.
          There are    51 degrees of freedom in the 1st order CPHF.  IDoFFX=6 NUNeed=     3.
     48 vectors produced by pass  0 Test12= 1.19D-14 1.96D-09 XBig12= 2.25D+01 1.01D+00.
 AX will form    48 AO Fock derivatives at one time.
     48 vectors produced by pass  1 Test12= 1.19D-14 1.96D-09 XBig12= 1.78D+00 1.90D-01.
     48 vectors produced by pass  2 Test12= 1.19D-14 1.96D-09 XBig12= 2.48D-02 2.28D-02.
     48 vectors produced by pass  3 Test12= 1.19D-14 1.96D-09 XBig12= 6.50D-05 1.03D-03.
     48 vectors produced by pass  4 Test12= 1.19D-14 1.96D-09 XBig12= 7.38D-08 3.77D-05.
     21 vectors produced by pass  5 Test12= 1.19D-14 1.96D-09 XBig12= 5.49D-11 9.30D-07.
      3 vectors produced by pass  6 Test12= 1.19D-14 1.96D-09 XBig12= 4.07D-14 2.02D-08.
 InvSVY:  IOpt=1 It=  1 EMax= 2.66D-15
 Solved reduced A of dimension   264 with    51 vectors.
 Isotropic polarizability for W=    0.000000       46.48 Bohr**3.
 End of Minotr F.D. properties file   721 does not exist.
 End of Minotr F.D. properties file   722 does not exist.
 End of Minotr F.D. properties file   788 does not exist.
 Calling FoFJK, ICntrl=    100127 FMM=F ISym2X=0 I1Cent= 0 IOpClX= 0 NMat=1 NMatS=1 NMatT=0.
 ***** Axes restored to original set *****
 -------------------------------------------------------------------
 Center     Atomic                   Forces (Hartrees/Bohr)
 Number     Number              X              Y              Z
 -------------------------------------------------------------------
      1        8           0.002903679    0.005057853    0.002747012
      2        1           0.001045469   -0.002386557   -0.003745746
      3        1          -0.005642599   -0.002495592   -0.001215875
      4        8           0.001735420    0.000174092   -0.001387450
      5        1           0.000619492   -0.004667084   -0.000644816
      6        1          -0.002150940   -0.001451750    0.006865327
      7        8          -0.003321374    0.000401349    0.001999895
      8        1           0.004647810   -0.003668589   -0.000075834
      9        1           0.000722159    0.003341790   -0.005617235
     10        8           0.005389422   -0.004730235   -0.005063465
     11        1           0.000156178    0.003935268    0.002431435
     12        1          -0.007340724   -0.000695923    0.000758493
     13        8          -0.007428872   -0.001767484   -0.001247579
     14        1           0.002929393   -0.000749703    0.004438843
     15        1           0.006435146    0.003319810   -0.002278468
     16       11          -0.000699660    0.006382756    0.002035463
 -------------------------------------------------------------------
 Cartesian Forces:  Max     0.007428872 RMS     0.003599708

 GradGradGradGradGradGradGradGradGradGradGradGradGradGradGradGradGradGrad
 Berny optimization.
 Search for a local minimum.
 Step number   3 out of a maximum of  500
 All quantities printed in internal units (Hartrees-Bohrs-Radians)
 Second derivative matrix not updated -- analytic derivatives used.
 ITU=  0  1  0
 Linear search step of   0.395 exceeds DXMaxT=   0.168 scaled by   0.852
 Quintic linear search produced a step of  1.70404.
 B after Tr=    -0.000000   -0.000000    0.000000
         Rot=    1.000000    0.000000   -0.000000   -0.000000 Ang=   0.00 deg.
 Variable       Old X    -DE/DX   Delta X   Delta X   Delta X     New X
                                 (Linear)    (Quad)   (Total)
    X1       -2.45449   0.00290  -0.01258   0.00000  -0.01258  -2.46706
    Y1       -1.56439   0.00506   0.00912   0.00000   0.00912  -1.55527
    Z1       -3.32648   0.00275   0.07117   0.00000   0.07117  -3.25531
    X2       -1.60916   0.00105   0.00102   0.00000   0.00102  -1.60814
    Y2       -2.98366  -0.00239   0.04767   0.00000   0.04767  -2.93599
    Z2       -4.08548  -0.00375  -0.01182   0.00000  -0.01182  -4.09730
    X3       -4.08590  -0.00564  -0.01538   0.00000  -0.01538  -4.10128
    Y3       -2.21330  -0.00250  -0.03893   0.00000  -0.03893  -2.25223
    Z3       -2.86443  -0.00122   0.02718   0.00000   0.02718  -2.83725
    X4       -0.42403   0.00174   0.05823   0.00000   0.05823  -0.36580
    Y4       -3.88867   0.00017   0.02794   0.00000   0.02794  -3.86073
    Z4        1.52276  -0.00139   0.03705   0.00000   0.03705   1.55981
    X5        0.66374   0.00062  -0.04455   0.00000  -0.04455   0.61920
    Y5       -5.28227  -0.00467  -0.05721   0.00000  -0.05721  -5.33948
    Z5        1.10073  -0.00064  -0.01302   0.00000  -0.01302   1.08771
    X6       -0.69715  -0.00215   0.01866   0.00000   0.01866  -0.67848
    Y6       -4.04328  -0.00145  -0.02837   0.00000  -0.02837  -4.07165
    Z6        3.31062   0.00687   0.03508   0.00000   0.03508   3.34570
    X7        3.67236  -0.00332   0.00029   0.00000   0.00029   3.67265
    Y7        0.08430   0.00040   0.00678   0.00000   0.00678   0.09108
    Z7       -2.44560   0.00200   0.00061   0.00000   0.00061  -2.44500
    X8        4.73386   0.00465  -0.00073   0.00000  -0.00073   4.73312
    Y8       -1.38677  -0.00367  -0.00496   0.00000  -0.00496  -1.39173
    Z8       -2.37214  -0.00008  -0.03615   0.00000  -0.03615  -2.40829
    X9        4.06692   0.00072   0.01875   0.00000   0.01875   4.08567
    Y9        0.85815   0.00334   0.07010   0.00000   0.07010   0.92825
    Z9       -4.03992  -0.00562   0.02492   0.00000   0.02492  -4.01500
   X10       -3.54220   0.00539  -0.01600   0.00000  -0.01600  -3.55820
   Y10        1.92818  -0.00473  -0.03446   0.00000  -0.03446   1.89372
   Z10        2.13717  -0.00506  -0.12799   0.00000  -0.12799   2.00918
   X11       -4.33130   0.00016   0.01927   0.00000   0.01927  -4.31203
   Y11        3.55023   0.00394  -0.01653   0.00000  -0.01653   3.53370
   Z11        2.37157   0.00243  -0.00337   0.00000  -0.00337   2.36820
   X12       -4.75470  -0.00734  -0.14401   0.00000  -0.14401  -4.89871
   Y12        0.96755  -0.00070   0.00238   0.00000   0.00238   0.96993
   Z12        1.18245   0.00076  -0.03612   0.00000  -0.03612   1.14633
   X13        3.31162  -0.00743   0.02669   0.00000   0.02669   3.33830
   Y13        1.51272  -0.00177  -0.00902   0.00000  -0.00902   1.50370
   Z13        2.85150  -0.00125  -0.05067   0.00000  -0.05067   2.80083
   X14        4.46580   0.00293  -0.00171   0.00000  -0.00171   4.46409
   Y14        0.28217  -0.00075   0.00563   0.00000   0.00563   0.28780
   Z14        3.52754   0.00444   0.06254   0.00000   0.06254   3.59008
   X15        4.15368   0.00644   0.11385   0.00000   0.11385   4.26753
   Y15        2.15641   0.00332  -0.07445   0.00000  -0.07445   2.08196
   Z15        1.37389  -0.00228  -0.04622   0.00000  -0.04622   1.32768
   X16       -0.01919  -0.00070  -0.02180   0.00000  -0.02180  -0.04100
   Y16        0.08301   0.00638   0.09431   0.00000   0.09431   0.17732
   Z16        0.05880   0.00204   0.06680   0.00000   0.06680   0.12559
         Item               Value     Threshold  Converged?
 Maximum Force            0.007429     0.000450     NO 
 RMS     Force            0.003600     0.000300     NO 
 Maximum Displacement     0.144009     0.001800     NO 
 RMS     Displacement     0.048549     0.001200     NO 
 Predicted change in Energy=-3.254901D-03
 GradGradGradGradGradGradGradGradGradGradGradGradGradGradGradGradGradGrad

                          Input orientation:                          
 ---------------------------------------------------------------------
 Center     Atomic      Atomic             Coordinates (Angstroms)
 Number     Number       Type             X           Y           Z
 ---------------------------------------------------------------------
      1          8           0       -1.305514   -0.823013   -1.722634
      2          1           0       -0.850990   -1.553659   -2.168198
      3          1           0       -2.170305   -1.191827   -1.501409
      4          8           0       -0.193574   -2.043013    0.825415
      5          1           0        0.327665   -2.825533    0.575592
      6          1           0       -0.359039   -2.154624    1.770468
      7          8           0        1.943482    0.048198   -1.293837
      8          1           0        2.504662   -0.736471   -1.274411
      9          1           0        2.162042    0.491208   -2.124645
     10          8           0       -1.882918    1.002112    1.063215
     11          1           0       -2.281830    1.869954    1.253199
     12          1           0       -2.592287    0.513266    0.606614
     13          8           0        1.766554    0.795726    1.482136
     14          1           0        2.362295    0.152297    1.899790
     15          1           0        2.258282    1.101725    0.702576
     16         11           0       -0.021694    0.093833    0.066461
 ---------------------------------------------------------------------
                    Distance matrix (angstroms):
                    1          2          3          4          5
     1  O    0.000000
     2  H    0.969001   0.000000
     3  H    0.965830   1.521880   0.000000
     4  O    3.036011   3.103768   3.169557   0.000000
     5  H    3.458208   3.245808   3.636314   0.972851   0.000000
     6  H    3.856264   4.014507   3.861715   0.965900   1.532778
     7  O    3.390995   3.337593   4.301626   3.664887   3.789981
     8  H    3.837425   3.567499   4.702572   3.660163   3.539210
     9  H    3.729977   3.641667   4.689377   4.546872   4.653707
    10  O    3.380153   4.247219   3.387220   3.490447   4.446945
    11  H    4.130478   5.047215   4.120049   4.455909   5.414445
    12  H    2.977721   3.873483   2.743934   3.512302   4.435613
    13  O    4.725301   5.069130   5.324544   3.511669   4.000718
    14  H    5.246524   5.457473   5.824026   3.536401   3.841965
    15  H    4.720900   4.995996   5.452551   3.989493   4.377986
    16  Na   2.385302   2.897527   2.954263   2.274129   2.983951
                    6          7          8          9         10
     6  H    0.000000
     7  O    4.420859   0.000000
     8  H    4.413981   0.964886   0.000000
     9  H    5.341177   0.966575   1.532149   0.000000
    10  O    3.575948   4.594234   5.266690   5.175439   0.000000
    11  H    4.490203   5.259225   6.007725   5.749674   0.973845
    12  H    3.668732   4.939758   5.574853   5.483056   0.975018
    13  O    3.647718   2.880300   3.238978   3.641154   3.679231
    14  H    3.569911   3.222654   3.299353   4.043642   4.409521
    15  H    4.312142   2.279185   2.710747   2.893989   4.158067
    16  Na   2.841303   2.390484   2.978224   3.118902   2.298400
                   11         12         13         14         15
    11  H    0.000000
    12  H    1.534620   0.000000
    13  O    4.194734   4.454865   0.000000
    14  H    4.993628   5.133273   0.971259   0.000000
    15  H    4.637453   4.887076   0.971156   1.531520   0.000000
    16  Na   3.109850   2.660007   2.386340   3.007975   2.572698
                   16
    16  Na   0.000000
 Stoichiometry    H10NaO5(1+)
 Framework group  C1[X(H10NaO5)]
 Deg. of freedom    42
 Full point group                 C1      NOp   1
 Largest Abelian subgroup         C1      NOp   1
 Largest concise Abelian subgroup C1      NOp   1
                         Standard orientation:                         
 ---------------------------------------------------------------------
 Center     Atomic      Atomic             Coordinates (Angstroms)
 Number     Number       Type             X           Y           Z
 ---------------------------------------------------------------------
      1          8           0       -1.561687   -1.651708   -0.511787
      2          1           0       -1.260394   -2.458378   -0.067413
      3          1           0       -2.458862   -1.526789   -0.176674
      4          8           0       -0.501737   -0.224273    1.949167
      5          1           0       -0.130680   -0.897970    2.544894
      6          1           0       -0.622655    0.553273    2.509312
      7          8           0        1.805962   -1.295962   -0.688522
      8          1           0        2.233118   -1.745327    0.050811
      9          1           0        2.039956   -1.818391   -1.467356
     10          8           0       -1.658478    1.721366   -0.707834
     11          1           0       -1.899087    2.369364   -1.393823
     12          1           0       -2.465057    1.184308   -0.599859
     13          8           0        1.928888    1.479259    0.072505
     14          1           0        2.438203    1.436691    0.898416
     15          1           0        2.413031    0.895451   -0.534057
     16         11           0       -0.035559    0.161666   -0.242953
 ---------------------------------------------------------------------
 Rotational constants (GHZ):           1.8016097           1.4940809           1.2093890
 Standard basis: Aug-CC-pVDZ (5D, 7F)
 There are   244 symmetry adapted cartesian basis functions of A   symmetry.
 There are   232 symmetry adapted basis functions of A   symmetry.
   232 basis functions,   406 primitive gaussians,   244 cartesian basis functions
    30 alpha electrons       30 beta electrons
       nuclear repulsion energy       308.2997434789 Hartrees.
 NAtoms=   16 NActive=   16 NUniq=   16 SFac= 1.00D+00 NAtFMM=   60 NAOKFM=F Big=F
 Integral buffers will be    131072 words long.
 Raffenetti 2 integral format.
 Two-electron integral symmetry is turned on.
 Nuclear repulsion after empirical dispersion term =      308.2911803319 Hartrees.
 One-electron integrals computed using PRISM.
 NBasis=   232 RedAO= T EigKep=  2.22D-04  NBF=   232
 NBsUse=   232 1.00D-06 EigRej= -1.00D+00 NBFU=   232
 Initial guess from the checkpoint file:  "sim006_type3_coord-5_3-2-0_10C_b1_id81756_step1780.chk"
 B after Tr=     0.000000   -0.000000    0.000000
         Rot=    0.999981    0.001347   -0.004887   -0.003453 Ang=   0.70 deg.
 ExpMin= 6.16D-03 ExpMax= 3.17D+04 ExpMxC= 1.08D+03 IAcc=3 IRadAn=         5 AccDes= 0.00D+00
 Harris functional with IExCor=  402 and IRadAn=       5 diagonalized for initial guess.
 HarFok:  IExCor=  402 AccDes= 0.00D+00 IRadAn=         5 IDoV= 1 UseB2=F ITyADJ=14
 ICtDFT=  3500011 ScaDFX=  1.000000  1.000000  1.000000  1.000000
 FoFCou: FMM=F IPFlag=           0 FMFlag=      100000 FMFlg1=           0
         NFxFlg=           0 DoJE=T BraDBF=F KetDBF=T FulRan=T
         wScrn=  0.000000 ICntrl=       500 IOpCl=  0 I1Cent=   200000004 NGrid=           0
         NMat0=    1 NMatS0=      1 NMatT0=    0 NMatD0=    1 NMtDS0=    0 NMtDT0=    0
 Petite list used in FoFCou.
 Requested convergence on RMS density matrix=1.00D-08 within 500 cycles.
 Requested convergence on MAX density matrix=1.00D-06.
 Requested convergence on             energy=1.00D-06.
 No special actions if energy rises.
 SCF Done:  E(RB3LYP) =  -544.446881332     A.U. after    9 cycles
            NFock=  9  Conv=0.46D-08     -V/T= 2.0058
 DoSCS=F DFT=T ScalE2(SS,OS)=  1.000000  1.000000
 Range of M.O.s used for correlation:     1   232
 NBasis=   232 NAE=    30 NBE=    30 NFC=     0 NFV=     0
 NROrb=    232 NOA=    30 NOB=    30 NVA=   202 NVB=   202

 **** Warning!!: The largest alpha MO coefficient is  0.15624432D+02

 Symmetrizing basis deriv contribution to polar:
 IMax=3 JMax=2 DiffMx= 0.00D+00
 G2DrvN: will do    17 centers at a time, making    1 passes.
 Calling FoFCou, ICntrl=  3107 FMM=F I1Cent=   0 AccDes= 1.00D-11.
 End of G2Drv F.D. properties file   721 does not exist.
 End of G2Drv F.D. properties file   722 does not exist.
 End of G2Drv F.D. properties file   788 does not exist.
          IDoAtm=1111111111111111
          Differentiating once with respect to electric field.
                with respect to dipole field.
          Differentiating once with respect to nuclear coordinates.
 Keep R1 ints in memory in canonical form, NReq=408195318.
          There are    51 degrees of freedom in the 1st order CPHF.  IDoFFX=6 NUNeed=     3.
     48 vectors produced by pass  0 Test12= 1.19D-14 1.96D-09 XBig12= 2.28D+01 1.02D+00.
 AX will form    48 AO Fock derivatives at one time.
     48 vectors produced by pass  1 Test12= 1.19D-14 1.96D-09 XBig12= 1.90D+00 1.93D-01.
     48 vectors produced by pass  2 Test12= 1.19D-14 1.96D-09 XBig12= 2.43D-02 1.98D-02.
     48 vectors produced by pass  3 Test12= 1.19D-14 1.96D-09 XBig12= 7.10D-05 1.03D-03.
     48 vectors produced by pass  4 Test12= 1.19D-14 1.96D-09 XBig12= 7.85D-08 3.29D-05.
     22 vectors produced by pass  5 Test12= 1.19D-14 1.96D-09 XBig12= 5.74D-11 8.00D-07.
      3 vectors produced by pass  6 Test12= 1.19D-14 1.96D-09 XBig12= 4.11D-14 2.63D-08.
 InvSVY:  IOpt=1 It=  1 EMax= 3.55D-15
 Solved reduced A of dimension   265 with    51 vectors.
 Isotropic polarizability for W=    0.000000       46.93 Bohr**3.
 End of Minotr F.D. properties file   721 does not exist.
 End of Minotr F.D. properties file   722 does not exist.
 End of Minotr F.D. properties file   788 does not exist.
 Calling FoFJK, ICntrl=    100127 FMM=F ISym2X=0 I1Cent= 0 IOpClX= 0 NMat=1 NMatS=1 NMatT=0.
 ***** Axes restored to original set *****
 -------------------------------------------------------------------
 Center     Atomic                   Forces (Hartrees/Bohr)
 Number     Number              X              Y              Z
 -------------------------------------------------------------------
      1        8           0.001282092   -0.002608495    0.000083516
      2        1          -0.001624442    0.003296136   -0.000530272
      3        1          -0.000920499   -0.000200976   -0.001851408
      4        8           0.006224571   -0.008554322    0.000961386
      5        1          -0.005107299    0.004600518    0.002060629
      6        1          -0.000924609   -0.000915455    0.001390751
      7        8          -0.000201594    0.000494443   -0.002587887
      8        1           0.001934223   -0.000221164   -0.000712684
      9        1          -0.000155585    0.000018609   -0.000623467
     10        8          -0.010919817    0.000591048   -0.007082719
     11        1           0.004897530   -0.005891679    0.000541112
     12        1           0.003176810    0.005234850    0.006141714
     13        8           0.003497670   -0.004080457   -0.002857655
     14        1          -0.003326992    0.005297717    0.000478843
     15        1           0.001582413   -0.000139345    0.004162511
     16       11           0.000585529    0.003078573    0.000425631
 -------------------------------------------------------------------
 Cartesian Forces:  Max     0.010919817 RMS     0.003583661

 GradGradGradGradGradGradGradGradGradGradGradGradGradGradGradGradGradGrad
 Berny optimization.
 Search for a local minimum.
 Step number   4 out of a maximum of  500
 All quantities printed in internal units (Hartrees-Bohrs-Radians)
 Second derivative matrix not updated -- analytic derivatives used.
 ITU=  0  0  1  0
     Eigenvalues ---   -0.00140  -0.00059  -0.00019   0.00008   0.00047
     Eigenvalues ---    0.00088   0.00115   0.00158   0.00168   0.00232
[...]
     1          2.54901691          0.28634176          5.74279857
     1          1.74438551         -2.45491292          5.30321661
     8         -1.13791327          4.28990085          0.34837879
     1         -0.89050841          6.02856326          0.84080681
     1         -2.83644285          3.84967749          0.86696919
     8          4.91017006         -1.02397916         -0.41950083
     1          6.17884964         -1.22307390         -1.71328609
     1          5.70484378         -1.51957324          1.14774572
     8         -3.64572300         -0.58610401          0.25600235
     1         -3.97787143         -0.64490088         -1.54334380
     1         -4.96159282         -1.56722000          1.05040751
     8         -0.81333443          1.00154129         -4.03564672
     1         -1.07701435          2.81101699         -3.98911879
     1         -0.48786596          0.58407719         -5.78125481
    11          0.80593687          0.22821033          0.19443468

 Electric dipole moment (dipole orientation):
 (Debye = 10**-18 statcoulomb cm , SI units = C m)
                  (au)            (Debye)         (10**-30 SI)
   Tot        0.347145D+00      0.882354D+00      0.294322D+01
   x          0.000000D+00      0.000000D+00      0.000000D+00
   y          0.000000D+00      0.000000D+00      0.000000D+00
   z          0.347145D+00      0.882354D+00      0.294322D+01

 Dipole polarizability, Alpha (dipole orientation).
 (esu units = cm**3 , SI units = C**2 m**2 J**-1)
 Alpha(0;0):
               (au)            (10**-24 esu)      (10**-40 SI)
   iso        0.473571D+02      0.701759D+01      0.780812D+01
   aniso      0.325744D+01      0.482702D+00      0.537079D+00
   xx         0.466713D+02      0.691598D+01      0.769506D+01
   yx         0.392094D+00      0.581024D-01      0.646476D-01
   yy         0.463832D+02      0.687329D+01      0.764756D+01
   zx        -0.113861D+01     -0.168724D+00     -0.187731D+00
   zy        -0.222566D-01     -0.329809D-02     -0.366962D-02
   zz         0.490166D+02      0.726351D+01      0.808174D+01

 ----------------------------------------------------------------------

 Test job not archived.
 1\1\GINC-N647\Freq\RB3LYP\Aug-CC-pVDZ\H10Na1O5(1+)\HNR2\18-Jul-2022\0\
 \#N Geom=AllCheck Guess=TCheck SCRF=Check Test GenChk RB3LYP/Aug-CC-pV
 DZ Freq\\MD frame sim006_type3_coord-5_3-2-0_10C_b1_id81756_step1780\\
 1,1\O,-0.9420753971,-1.0444085196,-2.246917179\H,-1.1435811119,-1.9727
 72018,-2.4244795399\H,-1.6085860406,-0.5508150206,-2.7430490771\O,-0.0
 162867975,-1.8420209196,1.468573717\H,0.105224698,-2.7689569961,1.7085
 298951\H,-0.8750185815,-1.5797699311,1.830879556\O,1.8071194356,-0.036
 287061,-1.9563549654\H,2.7158685703,0.2425326453,-2.1206354647\H,1.460
 9010545,-0.3342892643,-2.807688871\O,-1.4857195112,0.6342292794,1.1076
 460927\H,-0.9546611231,1.1818204826,1.7048192575\H,-2.3727832471,1.014
 0428318,1.1099382815\O,1.3045915532,0.7377668106,1.6674965751\H,1.4128
 163349,-0.0387291922,2.2351999911\H,2.0104198199,1.3485800296,1.913398
 1418\Na,0.2486003436,-0.2507431567,-0.2870264106\\Version=ES64L-G16Rev
 B.01\State=1-A\HF=-544.4645767\RMSD=3.225e-09\RMSF=1.008e-06\ZeroPoint
 =0.1205888\Thermal=0.1376228\Dipole=-0.2400914,-0.1754352,-0.1791316\D
 ipoleDeriv=-0.5405792,0.001087,0.0654769,0.0017167,-0.4982341,0.001619
 8,0.0685932,0.0009866,-0.6093761,0.2762819,-0.0211364,-0.0340948,-0.02
 60361,0.2746862,-0.0167294,-0.0342399,-0.0163252,0.3128358,0.265845,-0
 .0101935,-0.0436702,-0.0062204,0.2940743,-0.0048362,-0.0461977,-0.0047
 742,0.3031123,-0.5193384,0.0351284,-0.0770256,0.0124413,-0.6070616,-0.
 0240983,-0.0726099,-0.0350703,-0.6065991,0.291866,-0.0280686,0.0273498
 ,-0.0237886,0.2654409,0.0283256,0.0255912,0.0293497,0.3165037,0.266953
 1,-0.0606922,0.0417689,-0.0447619,0.3824537,-0.0110887,0.0405318,-0.00
 66397,0.2855073,-0.5967387,-0.0037342,-0.0140645,-0.005465,-0.5989441,
 0.0162571,-0.0171194,0.0143087,-0.5174123,0.2726608,-0.0145005,0.03651
 4,-0.0144992,0.3324085,-0.000409,0.0334735,-0.001203,0.2774449,0.37110
 77,0.0240575,0.0083516,0.0249963,0.3119158,-0.0167309,0.0110751,-0.014
 859,0.2210669,-0.6289377,0.0107822,0.004656,-0.0131604,-0.5381325,0.06
 94861,-0.0118791,0.0804495,-0.5863845,0.4365081,-0.0148146,0.0169475,-
 0.002294,0.2543109,-0.0317378,0.0212824,-0.0391366,0.2632582,0.2850891
 ,0.0293056,0.0054662,0.0337457,0.2667985,-0.0297522,0.0065612,-0.03039
 48,0.3177306,-0.5960307,-0.0162213,0.056831,-0.0322662,-0.5780495,-0.0
 675016,0.0719467,-0.0533914,-0.5554966,0.3072814,0.056721,-0.0120639,0
 .0688618,0.3549284,0.0446877,-0.0179639,0.0374496,0.2635765,0.2622627,
 -0.0107668,-0.0488617,-0.0042047,0.3090793,0.0100753,-0.0487492,0.0072
 372,0.3009727,0.845769,0.0230464,-0.0335811,0.0309348,0.7743253,0.0324
 325,-0.030296,0.032013,1.0132597\Polar=48.986713,0.8330348,46.9374061,
 0.7444822,0.3751721,46.1470417\Quadrupole=-0.185463,-5.0182752,5.20373
 83,2.3391821,0.9109768,2.3008261\PG=C01 [X(H10Na1O5)]\NImag=0\\0.31503
 091,-0.06403985,0.64255957,0.23334507,-0.03115848,0.19121376,-0.052708
 08,-0.11820573,-0.04117839,0.04816901,-0.07401464,-0.47330647,-0.06934
 775,0.08528634,0.49735156,-0.03987326,-0.10212659,-0.03825608,0.037485
 13,0.07803596,0.03407784,-0.25472822,0.18427200,-0.18786351,0.00475913
 ,-0.01072213,0.00263899,0.25109470,0.14023879,-0.16388125,0.10255622,0
 .03455666,-0.02372838,0.02547641,-0.17421321,0.18649890,-0.18829373,0.
 13561803,-0.14553264,0.00362961,-0.00853260,0.00372810,0.18568766,-0.1
 2779935,0.14195019,0.00053182,0.00017201,-0.00085001,-0.00031609,0.000
 06642,0.00047709,-0.00002490,-0.00007239,0.00020404,0.44921737,-0.0001
 4199,0.00075156,0.00022971,0.00020346,-0.00039775,0.00045616,0.0000346
 5,-0.00009543,-0.00011441,-0.16767123,0.57098060,-0.00035161,0.0009543
 5,-0.00136095,0.00019143,0.00002029,0.00099646,0.00017299,-0.00031483,
 -0.00007202,-0.17547852,-0.09880525,0.13877407,-0.00010324,-0.00011061
 ,0.00023429,0.00010235,0.00002920,-0.00021068,0.00000318,0.00004026,-0
 .00004181,-0.04503282,0.03428371,0.01114745,0.04949413,0.00000558,-0.0
 0002345,-0.00025705,-0.00002758,0.00012149,0.00006068,-0.00000167,-0.0
 0001282,0.00002130,0.08124093,-0.47750992,0.11364639,-0.07544978,0.490
 05444,0.00010084,-0.00039201,0.00015518,-0.00015507,0.00018724,-0.0003
 8191,-0.00005045,0.00005789,-0.00001314,-0.00405937,0.13734271,-0.0479
 9081,0.00044079,-0.12011321,0.04374778,-0.00034146,0.00013421,0.000113
 40,0.00016419,-0.00006159,-0.00001363,0.00007522,-0.00002358,-0.000146
 75,-0.39984686,0.13122858,0.16410732,-0.00448019,-0.00575987,0.0039004
 4,0.40717432,0.00017196,-0.00052432,0.00001430,-0.00004211,0.00015739,
 -0.00026895,-0.00004525,0.00015134,0.00014775,0.08602806,-0.07436426,-
 0.02178807,0.04115614,-0.01181324,-0.01775572,-0.12440453,0.08382892,-
 0.00030334,-0.00013836,0.00074862,0.00016368,-0.00008662,-0.00033494,-
 0.00002297,0.00010423,-0.00012542,0.17776158,-0.04527067,-0.08407986,-
 0.01116350,0.00665193,0.00337750,-0.16928276,0.03980173,0.08303622,-0.
 00530393,-0.00269412,-0.00051695,-0.00075367,0.00051762,-0.00009575,0.
 00006917,-0.00039599,0.00012597,0.00043441,-0.00024540,0.00064799,-0.0
 0019798,0.00007909,-0.00005505,-0.00004413,0.00008791,-0.00025299,0.57
 739126,-0.00245088,0.00102350,-0.00039222,0.00054663,-0.00001690,-0.00
 001169,-0.00043142,-0.00080745,0.00011230,-0.00030658,0.00046375,0.000
 59731,0.00010939,-0.00001415,-0.00028458,0.00012817,-0.00027787,0.0000
 1820,0.20641659,0.10305509,0.00022067,-0.00013572,0.00099179,0.0000070
 7,0.00015238,-0.00024273,0.00032920,0.00006282,-0.00022001,0.00048835,
 0.00028362,-0.00015082,-0.00006779,-0.00013061,-0.00001029,-0.00015162
 ,0.00007584,-0.00004590,0.04650764,0.11665811,0.48812959,0.00018702,-0
 .00021575,-0.00028630,-0.00026651,-0.00003410,0.00007523,-0.00013979,-
 0.00008874,0.00009366,-0.00000387,0.00004035,-0.00015553,0.00003508,-0
 .00001894,0.00004397,-0.00001310,-0.00000270,0.00001681,-0.46101130,-0
 .14555601,0.05876686,0.47644893,-0.00022356,0.00050556,-0.00017436,0.0
 0006311,0.00008276,0.00004166,-0.00022352,-0.00005512,0.00004815,0.000
 11581,-0.00009343,-0.00011387,-0.00006780,0.00000939,0.00005660,-0.000
 03213,0.00006908,0.00001333,-0.13495838,-0.04795918,0.00769842,0.14906
 348,0.05104182,-0.00033898,-0.00018155,0.00029318,-0.00002641,0.000034
 89,0.00009325,0.00006103,-0.00000018,0.00009738,-0.00018491,-0.0000141
 6,-0.00015596,0.00007028,0.00001983,0.00000523,0.00003829,-0.00000472,
 0.00003668,0.10909280,0.02506915,-0.06305103,-0.06874846,-0.01228076,0
 .05672271,0.00155490,0.00123469,-0.00177690,0.00027572,-0.00060271,0.0
 0007099,-0.00088259,0.00014161,0.00014298,-0.00029751,-0.00004120,-0.0
 0023592,0.00008180,-0.00001493,0.00005380,0.00007310,-0.00003679,0.000
 16656,-0.09920246,-0.05715675,-0.11473065,-0.01495764,-0.01371224,-0.0
 4095959,0.11168739,0.00130430,-0.00252568,-0.00027727,-0.00130150,-0.0
 0013300,0.00038919,0.00069057,0.00077545,-0.00036178,-0.00001045,-0.00
 022161,-0.00019898,-0.00000881,0.00003491,0.00012120,-0.00003436,0.000
 08556,0.00003082,-0.06736249,-0.05276553,-0.12551072,-0.00296580,-0.00
 382145,-0.01299072,0.06954796,0.05699267,-0.00118367,-0.00009640,-0.00
 131467,-0.00014919,-0.00008216,0.00023220,-0.00058680,-0.00019204,0.00
 039567,-0.00003892,0.00002478,0.00021698,0.00001448,0.00001625,-0.0000
 6965,0.00002489,-0.00003471,-0.00001681,-0.16339979,-0.14227646,-0.413
 05204,0.01030563,0.00469045,0.00536268,0.15471791,0.13871467,0.4110535
 8,0.00089462,-0.00008790,-0.00032807,-0.00016004,0.00007162,0.00013026
 ,-0.00030403,0.00012104,0.00043731,-0.00000975,0.00492361,-0.00049027,
 -0.00029768,0.00035116,-0.00004160,-0.00303954,-0.00098467,0.00008524,
 -0.00000672,0.00021606,0.00065173,0.00005823,-0.00001826,-0.00011538,-
 0.00029268,-0.00009673,-0.00007044,0.63359573,0.00023735,0.00035852,-0
 .00079488,-0.00007884,0.00001986,0.00029027,-0.00003478,-0.00035292,0.
 00009510,0.00262774,-0.00532583,0.00135069,0.00078227,0.00039978,-0.00
 017771,-0.00058139,0.00151685,-0.00101485,0.00006367,0.00049273,-0.000
 06919,0.00001278,-0.00013230,-0.00002768,-0.00007801,-0.00015329,0.000
 04575,-0.05363141,0.29716838,0.00054108,-0.00129518,-0.00089134,-0.000
 05279,0.00032738,-0.00020691,-0.00004120,0.00037056,0.00078097,-0.0000
 9912,0.00145132,0.00137250,-0.00011727,-0.00019240,0.00025235,0.000025
 00,-0.00219052,-0.00184340,0.00072956,-0.00020068,0.00008116,-0.000140
 47,-0.00001220,-0.00014839,-0.00031528,0.00009569,0.00010094,0.1597788
 6,0.20606094,0.22659322,-0.00038755,0.00022769,0.00039502,0.00007975,-
 0.00007501,-0.00002941,0.00008793,-0.00006708,-0.00024592,-0.00114630,
 -0.00007076,-0.00050035,-0.00014255,-0.00001028,0.00005294,0.00105006,
 -0.00086106,0.00038238,-0.00035091,-0.00018796,-0.00042460,0.00000864,
 0.00004517,0.00021205,0.00024244,0.00005054,-0.00000890,-0.17413702,-0
 .11257505,-0.14219782,0.19151092,0.00004932,-0.00005237,0.00002192,-0.
 00001842,0.00002636,-0.00003707,0.00001277,0.00001778,-0.00002370,0.00
 001694,0.00094325,0.00068444,0.00016844,-0.00005534,0.00014912,-0.0007
 9550,-0.00157959,-0.00104856,0.00001272,-0.00014357,0.00007251,-0.0000
 0935,0.00005747,-0.00000999,-0.00000596,0.00003871,-0.00000756,-0.1527
 1240,-0.18346465,-0.18857958,0.13896534,0.17818776,0.00007524,0.000114
 43,-0.00004298,0.00001531,-0.00003405,0.00000798,-0.00002439,-0.000080
 20,-0.00000251,-0.00034265,0.00004669,-0.00055940,-0.00000222,0.000068
 18,0.00002528,0.00056293,0.00018071,0.00075679,-0.00017513,0.00017997,
 0.00009381,0.00006437,-0.00002915,0.00003133,0.00000310,-0.00006338,-0
 .00003013,-0.17284733,-0.17440094,-0.19825936,0.16836200,0.17811148,0.
 20199637,-0.00013667,-0.00020431,-0.00016558,0.00006686,0.00001920,-0.
 00002934,0.00012935,0.00006059,0.00005124,0.00034925,-0.00076924,-0.00
 004782,0.00012398,-0.00005640,-0.00002720,-0.00009947,0.00091420,-0.00
 001568,0.00009346,-0.00005710,-0.00010647,-0.00002554,0.00000888,0.000
 01424,0.00000242,0.00003258,0.00003528,-0.43970477,0.15870083,-0.01957
 514,-0.02120956,0.01563312,0.00514205,0.46169979,-0.00030044,-0.000085
 20,0.00026020,0.00009965,-0.00002755,-0.00011236,0.00008828,0.00011720
 ,-0.00016825,0.00011274,-0.00122145,0.00022402,0.00022666,-0.00019270,
 0.00004870,0.00099396,0.00069901,-0.00039328,-0.00000622,-0.00010333,0
 .00002796,-0.00000778,0.00002988,-0.00001739,0.00004723,0.00005299,-0.
 00000700,0.20109188,-0.10768097,-0.01539109,-0.02619093,0.00857089,-0.
 00177109,-0.17461316,0.09922989,-0.00046876,0.00043717,0.00016377,0.00
 003518,-0.00013121,0.00002574,0.00019690,-0.00026672,-0.00043603,0.000
 06261,-0.00000848,-0.00010690,-0.00005588,0.00011492,0.00019899,-0.000
 35558,-0.00000706,0.00008600,-0.00013629,0.00004648,-0.00012819,0.0000
 3021,-0.00000757,0.00001263,0.00014565,-0.00002166,-0.00000514,0.01234
 831,-0.02894523,-0.02376489,-0.02712738,0.01220142,0.00000467,0.014983
 45,0.01699604,0.02275390,0.00031737,-0.00008185,-0.00047826,-0.0001051
 6,0.00005923,0.00011864,-0.00007375,0.00001676,0.00018517,-0.00029461,
 -0.00517229,-0.00065124,-0.00101018,-0.00008394,-0.00023319,0.00045247
 ,0.00110300,0.00014458,0.00100996,0.00026294,0.00065229,-0.00013823,-0
 .00004476,-0.00072731,-0.00032334,-0.00011422,0.00005402,-0.00853672,0
 .00178367,-0.00143202,0.00181996,-0.00208422,0.00010375,-0.00026825,-0
 .00105886,-0.00043902,0.33670546,-0.00014720,0.00029482,-0.00035413,0.
 00007159,-0.00002561,0.00019698,0.00001041,-0.00018368,-0.00001545,-0.
 00303344,-0.00483388,-0.00034184,-0.00089536,0.00017340,-0.00022558,0.
 00080731,-0.00072162,-0.00003738,0.00002899,0.00083076,-0.00035040,0.0
 0002944,-0.00044976,-0.00005790,0.00000213,-0.00001787,0.00002181,-0.0
 0084304,0.00243638,-0.00050985,-0.00130479,-0.00332193,0.00007832,-0.0
 0044081,0.00035453,-0.00005753,0.19895924,0.56241324,-0.00039885,-0.00
 020493,-0.00002048,0.00006639,0.00012075,-0.00006050,0.00012569,-0.000
 01816,-0.00001164,-0.00073288,-0.00097759,0.00125246,-0.00019221,-0.00
 021767,-0.00015335,-0.00030280,-0.00045582,-0.00041689,-0.00047450,-0.
 00059697,-0.00153385,-0.00022556,0.00008392,0.00051769,0.00045857,0.00
 014408,-0.00002903,-0.00187659,-0.00017500,0.00143745,-0.00098635,0.00
 049154,-0.00266721,-0.00031684,-0.00010297,0.00015252,0.16533804,-0.16
 035939,0.25874477,-0.00010396,-0.00009745,0.00023227,0.00001920,0.0000
 0523,-0.00013578,0.00002003,0.00002450,-0.00004406,-0.00082636,0.00262
 612,0.00167260,0.00106306,-0.00008347,0.00041631,-0.00151940,-0.000990
 37,-0.00081798,-0.00027210,-0.00005682,-0.00020937,0.00005591,-0.00006
 212,0.00016246,0.00012676,0.00007090,-0.00001116,-0.00016084,-0.001086
 16,0.00088586,0.00032059,0.00191797,-0.00133099,-0.00019588,-0.0001612
 0,0.00004148,-0.03973674,0.05287655,-0.06303323,0.03780874,0.00002276,
 -0.00027759,0.00018489,-0.00004869,0.00005386,-0.00017835,-0.00000315,
 0.00009933,0.00001635,0.00196671,-0.00076539,0.00152616,-0.00011470,-0
 .00076531,-0.00020693,-0.00066039,0.00117215,0.00009091,-0.00011833,-0
 .00044568,-0.00018478,-0.00001115,0.00015969,0.00013166,0.00009203,0.0
 0008528,-0.00005177,-0.00081797,-0.00064002,-0.00021677,0.00145249,-0.
 00022026,0.00062808,0.00003689,-0.00006512,-0.00009729,0.01636790,-0.3
 2919407,0.21241556,-0.02625662,0.34946011,0.00010867,-0.00003432,0.000
 10016,-0.00003380,-0.00000354,-0.00004380,-0.00001858,0.00002857,0.000
 01187,0.00075605,0.00105286,-0.00161911,0.00055996,0.00031867,0.000309
 99,0.00031473,0.00053894,0.00052206,0.00008191,-0.00022616,0.00031346,
 -0.00000268,0.00011204,-0.00010473,-0.00003355,-0.00002910,-0.00003019
 ,0.00030342,-0.00000361,-0.00014033,-0.00024687,-0.00021187,0.00031071
 ,-0.00000006,-0.00009767,0.00005721,-0.04035939,0.24351641,-0.19009301
 ,0.04324808,-0.23292755,0.18762539,-0.00002703,0.00002084,0.00011538,0
 .00001448,-0.00000341,-0.00003555,0.00000517,-0.00001484,-0.00003177,0
 .00062956,0.00032534,0.00029918,-0.00000480,-0.00005921,-0.00012158,0.
 00001022,0.00008445,-0.00007712,-0.00023501,-0.00001844,-0.00000267,0.
 00012160,0.00004706,0.00019096,0.00003259,0.00000677,0.00001596,-0.000
 75714,0.00052171,0.00008902,-0.00009891,-0.00119847,-0.00054381,-0.000
 25697,-0.00008464,-0.00011584,-0.28520307,-0.24566107,-0.09737736,0.00
 223201,0.00792670,-0.00265607,0.28357924,0.00005843,-0.00000209,0.0001
 0034,-0.00001715,-0.00000733,-0.00001705,-0.00000384,0.00002932,-0.000
 02406,-0.00019400,-0.00060643,0.00010265,-0.00028867,-0.00007482,-0.00
 012342,-0.00010442,-0.00019298,-0.00003294,0.00011855,-0.00015976,0.00
 032597,-0.00001915,0.00016476,-0.00016273,-0.00005475,0.00000665,0.000
 00085,0.00138598,-0.00034018,0.00039548,-0.00104688,0.00096758,-0.0000
 8426,0.00024296,0.00014397,0.00009666,-0.20777683,-0.22353761,-0.04850
 936,-0.02982694,-0.02094012,-0.01335201,0.23807327,0.24470647,0.000126
 32,0.00006464,-0.00008781,-0.00003691,-0.00002731,0.00000960,-0.000046
 04,-0.00003066,0.00001367,0.00025754,0.00016671,0.00032470,-0.00004803
 ,-0.00002432,0.00019510,-0.00011443,0.00001635,-0.00002581,0.00042039,
 0.00044518,0.00041409,0.00003149,-0.00024575,-0.00044679,-0.00014760,-
 0.00003916,-0.00003220,-0.00012480,0.00009312,-0.00005719,0.00001592,0
 .00012726,-0.00004164,0.00000037,-0.00003682,0.00024430,-0.11991514,-0
 .08113818,-0.06154058,0.02049410,0.01953124,0.00562548,0.10014253,0.06
 186830,0.05485148,-0.00467649,-0.00032386,-0.00099146,0.00065887,-0.00
 054127,-0.00057293,-0.00009061,-0.00032439,-0.00175360,-0.00336332,0.0
 0044630,-0.00032771,0.00036585,-0.00011067,-0.00026558,0.00038457,-0.0
 0217824,0.00321553,-0.01162005,-0.00145783,0.00806936,-0.00035943,-0.0
 0000076,0.00125893,0.00187909,0.00019073,0.00028068,-0.00714166,0.0033
 3561,0.00192173,0.00235252,0.00004771,0.00093778,-0.00056799,-0.000237
 19,0.00085495,-0.00461517,-0.00045995,-0.00007152,0.00116897,0.0001655
 0,-0.00202180,-0.00004194,-0.00054657,-0.00105571,0.02566679,-0.000769
 92,-0.00481511,-0.00061146,-0.00108739,-0.00017029,-0.00219525,0.00057
 029,0.00142773,0.00098063,-0.00105928,-0.00770380,0.00245652,0.0001396
 3,-0.00033166,0.00131570,-0.00083448,0.00179356,0.00131151,-0.00154420
 ,-0.00317241,0.00102379,-0.00021658,0.00039082,0.00049224,0.00063769,0
 .00156623,-0.00076647,0.00103102,-0.00430235,-0.00011311,0.00164857,0.
 00002791,-0.00294479,0.00049177,0.00017798,-0.00034995,-0.00213580,-0.
 00421711,-0.00163797,0.00109987,0.00228315,0.00131835,0.00003393,-0.00
 015743,-0.00077060,0.00199488,0.01720278,-0.00330569,-0.00142508,-0.00
 615951,0.00003875,-0.00063363,0.00035569,-0.00055854,0.00004543,-0.000
 56442,0.00177910,0.00413600,-0.00684135,-0.00056787,0.00001711,0.00035
 175,0.00128056,0.00172995,-0.00167483,0.00750019,0.00086207,-0.0115890
 4,0.00013078,0.00011908,0.00073417,0.00243994,-0.00000290,-0.00278218,
 0.00215936,-0.00232676,-0.00530679,0.00234731,-0.00194138,-0.00162371,
 0.00005751,0.00054097,0.00074142,-0.00236093,-0.00036588,-0.00557832,-
 0.00157058,-0.00066141,-0.00284516,0.00010876,-0.00058442,0.00055361,-
 0.00947866,0.00049084,0.04222867\\-0.00000068,0.00000142,-0.00000229,0
 .00000013,0.00000357,-0.00000046,0.00000158,0.00000025,0.00000032,-0.0
 0000116,-0.00000119,-0.00000071,-0.00000010,0.00000013,-0.00000079,0.0
 0000028,-0.00000057,-0.00000068,0.00000322,0.00000033,0.00000105,-0.00
 000081,-0.00000099,0.00000121,0.00000064,-0.00000017,0.00000029,-0.000
 00090,-0.00000020,-0.00000007,-0.00000060,-0.00000054,0.00000014,0.,-0
 .00000061,-0.00000009,-0.00000068,-0.00000080,0.00000123,-0.00000034,-
 0.00000028,0.00000025,-0.00000051,-0.00000018,0.00000062,-0.00000008,-
 0.00000016,-0.00000003\\\@


 IN SO FAR AS QUANTUM MECHANICS IS CORRECT, CHEMICAL 
 QUESTIONS ARE PROBLEMS IN APPLIED MATHEMATICS.

                    -- EYRING, WALTER, & KIMBALL, 1944
 Job cpu time:       0 days  1 hours  2 minutes 13.1 seconds.
 Elapsed time:       0 days  0 hours  1 minutes 34.4 seconds.
 File lengths (MBytes):  RWF=     88 Int=      0 D2E=      0 Chk=      6 Scr=      1
 Normal termination of Gaussian 16 at Mon Jul 18 21:36:47 2022.
