 Entering Gaussian System, Link 0=g16
 Initial command:
 /share/sw/gaussian/g16_B.01_avx2-enabled/g16/l1.exe "/scratch/hnr2/2615641/Gau-35281.inp" -scrdir="/scratch/hnr2/2615641/"
 Entering Link 1 = /share/sw/gaussian/g16_B.01_avx2-enabled/g16/l1.exe PID=     35282.
  
 Copyright (c) 1988-2017, Gaussian, Inc.  All Rights Reserved.
  
 This is part of the Gaussian(R) 16 program.  It is based on
 the Gaussian(R) 09 system (copyright 2009, Gaussian, Inc.),
 the Gaussian(R) 03 system (copyright 2003, Gaussian, Inc.),
 the Gaussian(R) 98 system (copyright 1998, Gaussian, Inc.),
 the Gaussian(R) 94 system (copyright 1995, Gaussian, Inc.),
 the Gaussian 92(TM) system (copyright 1992, Gaussian, Inc.),
 the Gaussian 90(TM) system (copyright 1990, Gaussian, Inc.),
 the Gaussian 88(TM) system (copyright 1988, Gaussian, Inc.),
 the Gaussian 86(TM) system (copyright 1986, Carnegie Mellon
 University), and the Gaussian 82(TM) system (copyright 1983,
 Carnegie Mellon University). Gaussian is a federally registered
 trademark of Gaussian, Inc.
  
 This software contains proprietary and confidential information,
 including trade secrets, belonging to Gaussian, Inc.
  
 This software is provided under written license and may be
 used, copied, transmitted, or stored only in accord with that
 written license.
  
 The following legend is applicable only to US Government
 contracts under FAR:
  
                    RESTRICTED RIGHTS LEGEND
  
 Use, reproduction and disclosure by the US Government is
 subject to restrictions as set forth in subparagraphs (a)
 and (c) of the Commercial Computer Software - Restricted
 Rights clause in FAR 52.227-19.
  
 Gaussian, Inc.
 340 Quinnipiac St., Bldg. 40, Wallingford CT 06492
  
  
 ---------------------------------------------------------------
 Warning -- This program may not be used in any manner that
 competes with the business of Gaussian, Inc. or will provide
 assistance to any competitor of Gaussian, Inc.  The licensee
 of this program is prohibited from giving any competitor of
 Gaussian, Inc. access to this program.  By using this program,
 the user acknowledges that Gaussian, Inc. is engaged in the
 business of creating and licensing software in the field of
 computational chemistry and represents and warrants to the
 licensee that it is not a competitor of Gaussian, Inc. and that
 it will not use this program in any manner prohibited above.
 ---------------------------------------------------------------
  

 Cite this work as:
 Gaussian 16, Revision B.01,
 M. J. Frisch, G. W. Trucks, H. B. Schlegel, G. E. Scuseria, 
 M. A. Robb, J. R. Cheeseman, G. Scalmani, V. Barone, 
 G. A. Petersson, H. Nakatsuji, X. Li, M. Caricato, A. V. Marenich, 
 J. Bloino, B. G. Janesko, R. Gomperts, B. Mennucci, H. P. Hratchian, 
 J. V. Ortiz, A. F. Izmaylov, J. L. Sonnenberg, D. Williams-Young, 
 F. Ding, F. Lipparini, F. Egidi, J. Goings, B. Peng, A. Petrone, 
 T. Henderson, D. Ranasinghe, V. G. Zakrzewski, J. Gao, N. Rega, 
 G. Zheng, W. Liang, M. Hada, M. Ehara, K. Toyota, R. Fukuda, 
 J. Hasegawa, M. Ishida, T. Nakajima, Y. Honda, O. Kitao, H. Nakai, 
 T. Vreven, K. Throssell, J. A. Montgomery, Jr., J. E. Peralta, 
 F. Ogliaro, M. J. Bearpark, J. J. Heyd, E. N. Brothers, K. N. Kudin, 
 V. N. Staroverov, T. A. Keith, R. Kobayashi, J. Normand, 
 K. Raghavachari, A. P. Rendell, J. C. Burant, S. S. Iyengar, 
 J. Tomasi, M. Cossi, J. M. Millam, M. Klene, C. Adamo, R. Cammi, 
 J. W. Ochterski, R. L. Martin, K. Morokuma, O. Farkas, 
 J. B. Foresman, and D. J. Fox, Gaussian, Inc., Wallingford CT, 2016.
 
 ******************************************
 Gaussian 16:  ES64L-G16RevB.01 20-Dec-2017
                18-Jul-2022 
 ******************************************
 %nprocshared=40
 Will use up to   40 processors via shared memory.
 %mem=60GB
 %chk=sim004_type3_coord-5_3-2-0_10C_b1_id81790_step1500.chk
 ----------------------------------------------------------------------
 # opt=(calcall,maxcycles=500,maxstep=10,cartesian) freq iop(1/152=500,
 1/8=10) scf=(maxcycle=500) int(Acc2E=11,grid=ultrafine) rb3lyp/aug-cc-
 pvdz empiricaldispersion=gd3
 ----------------------------------------------------------------------
 1/6=500,8=10,10=4,18=10,26=4,38=1,152=500/1,3;
 2/12=2,17=6,18=5,29=2,40=1/2;
 3/5=16,7=10,11=2,25=1,27=11,30=1,71=2,74=-5,75=-5,116=1,124=31,140=1/1,2,3;
 4//1;
 5/5=2,7=500,38=5,87=11/2;
 8/6=4,10=90,11=11,87=11/1;
 11/6=1,8=1,9=11,15=111,16=1,87=11/1,2,10;
 10/6=1,87=11/2;
 6/7=2,8=2,9=2,10=2,18=1,28=1,87=11/1;
 7/7=1,10=1,25=1,87=11/1,2,3,16;
 1/6=500,8=10,10=4,18=10,26=4,152=500/3(3);
 2/29=1/2;
 7/7=1,8=1,9=1,25=1,44=-1,87=11/16;
 99/12=1/99;
 2/29=1/2;
 3/5=16,7=10,11=2,25=1,27=11,30=1,71=2,74=-5,75=-5,116=1,124=31,140=1/1,2,3;
 4/5=5,16=3,69=1/1;
 5/5=2,7=500,38=5,87=11/2;
 8/6=4,10=90,11=11,87=11/1;
 11/6=1,8=1,9=11,15=111,16=1,87=11/1,2,10;
 10/6=1,87=11/2;
 7/7=1,10=1,25=1,87=11/1,2,3,16;
 1/6=500,8=10,10=4,18=10,26=4,152=500/3(-8);
 2/29=1/2;
 6/7=2,8=2,9=2,10=2,18=1,19=2,28=1,87=11/1;
 7/7=1,8=1,9=1,25=1,44=-1,87=11/16;
 99/12=1/99;
 -----------------------------------------------------------
 MD frame sim004_type3_coord-5_3-2-0_10C_b1_id81790_step1500
 -----------------------------------------------------------
 Symbolic Z-matrix:
 Charge =  1 Multiplicity = 1
 O                    -0.34141  -2.07015  -0.95391 
 H                    -0.85641  -2.78815  -0.58811 
 H                     0.5098   -2.46014  -1.15061 
 O                     1.9904   -0.74329   0.5623 
 H                     2.5997   -0.13399   0.9786 
 H                     1.7951   -1.38879   1.2413 
 O                    -1.9415    1.16086  -0.50119 
 H                    -1.8183    1.76086  -1.2369 
 H                    -2.65441   1.54787   0.0068 
 O                    -0.0657    0.4821    2.37899 
 H                    -0.9247    0.17461   2.66771 
 H                     0.4522    0.53571   3.1819 
 O                     0.99336   0.84886  -2.23934 
 H                     0.32281   1.07385  -2.88333 
 H                     1.7085    0.47887  -2.75634 
 Na                    0.        0.        0. 
 

 GradGradGradGradGradGradGradGradGradGradGradGradGradGradGradGradGradGrad
 Berny optimization.
 Initialization pass.
 No Z-matrix variables, so optimization will use Cartesian coordinates.
 Trust Radius=1.00D-01 FncErr=1.00D-07 GrdErr=1.00D-06 EigMax=2.50D+02 EigMin=1.00D-04
 Number of steps in this run=    500 maximum allowed number of steps=    500.
 GradGradGradGradGradGradGradGradGradGradGradGradGradGradGradGradGradGrad

 ---------------------------------------------------------------------------------------------------
                            Z-MATRIX (ANGSTROMS AND DEGREES)
   CD    Cent   Atom    N1       Length/X        N2       Alpha/Y        N3        Beta/Z          J
 ---------------------------------------------------------------------------------------------------
      1      1  O        0  -0.341410         -2.070150         -0.953910
      2      2  H        0  -0.856410         -2.788150         -0.588110
      3      3  H        0   0.509800         -2.460140         -1.150610
      4      4  O        0   1.990400         -0.743290          0.562300
      5      5  H        0   2.599700         -0.133990          0.978600
      6      6  H        0   1.795100         -1.388790          1.241300
      7      7  O        0  -1.941500          1.160860         -0.501190
      8      8  H        0  -1.818300          1.760860         -1.236900
      9      9  H        0  -2.654410          1.547870          0.006800
     10     10  O        0  -0.065700          0.482100          2.378990
     11     11  H        0  -0.924700          0.174610          2.667710
     12     12  H        0   0.452200          0.535710          3.181900
     13     13  O        0   0.993360          0.848860         -2.239340
     14     14  H        0   0.322810          1.073850         -2.883330
     15     15  H        0   1.708500          0.478870         -2.756340
     16     16  Na       0   0.000000          0.000000          0.000000
 ---------------------------------------------------------------------------------------------------
                         Z-Matrix orientation:                         
 ---------------------------------------------------------------------
 Center     Atomic      Atomic             Coordinates (Angstroms)
 Number     Number       Type             X           Y           Z
 ---------------------------------------------------------------------
      1          8           0       -0.341410   -2.070150   -0.953910
      2          1           0       -0.856410   -2.788150   -0.588110
      3          1           0        0.509800   -2.460140   -1.150610
      4          8           0        1.990400   -0.743290    0.562300
      5          1           0        2.599700   -0.133990    0.978600
      6          1           0        1.795100   -1.388790    1.241300
      7          8           0       -1.941500    1.160860   -0.501190
      8          1           0       -1.818300    1.760860   -1.236900
      9          1           0       -2.654410    1.547870    0.006800
     10          8           0       -0.065700    0.482100    2.378990
     11          1           0       -0.924700    0.174610    2.667710
     12          1           0        0.452200    0.535710    3.181900
     13          8           0        0.993360    0.848860   -2.239340
     14          1           0        0.322810    1.073850   -2.883330
     15          1           0        1.708500    0.478870   -2.756340
     16         11           0        0.000000    0.000000    0.000000
 ---------------------------------------------------------------------
                    Distance matrix (angstroms):
                    1          2          3          4          5
     1  O    0.000000
     2  H    0.956326   0.000000
     3  H    0.956735   1.513449   0.000000
     4  O    3.081686   3.689068   2.841445   0.000000
     5  H    4.016645   4.630750   3.783146   0.956974   0.000000
     6  H    3.138132   3.512187   2.919079   0.957002   1.513577
     7  O    3.633823   4.096298   4.420663   4.496291   4.948627
     8  H    4.115571   4.694641   4.821238   4.900417   5.293167
     9  H    4.400341   4.731574   5.236026   5.208863   5.601671
    10  O    4.206925   4.485916   4.630988   3.004911   3.073275
    11  H    4.300617   4.402610   4.855849   3.711213   3.920424
    12  H    4.952297   5.193600   5.267739   3.296089   3.148775
    13  O    3.457537   4.401824   3.516908   3.373161   3.728466
    14  H    3.748144   4.644743   3.940351   4.237360   4.643017
    15  H    3.734754   4.685446   3.557110   3.547748   3.888394
    16  Na   2.304783   2.975415   2.763347   2.197807   2.781016
                    6          7          8          9         10
     6  H    0.000000
     7  O    4.847594   0.000000
     8  H    5.396150   0.957313   0.000000
     9  H    5.472303   0.957116   1.513682   0.000000
    10  O    2.873525   3.503538   4.216811   3.669410   0.000000
    11  H    3.446183   3.471095   4.308212   3.458060   0.956969
    12  H    3.045162   4.436864   5.116831   4.555958   0.956953
    13  O    4.214821   3.425188   3.121228   4.340505   4.752378
    14  H    5.024421   3.287744   2.786946   4.176288   5.309719
    15  H    4.413250   4.344343   4.048520   5.273774   5.433177
    16  Na   2.586880   2.316940   2.817226   3.072758   2.428236
                   11         12         13         14         15
    11  H    0.000000
    12  H    1.513485   0.000000
    13  O    5.311564   5.457175   0.000000
    14  H    5.760118   6.090431   0.956546   0.000000
    15  H    6.037105   6.069944   0.956873   1.513362   0.000000
    16  Na   2.828822   3.258214   2.592676   3.093696   3.278063
                   16
    16  Na   0.000000
 Stoichiometry    H10NaO5(1+)
 Framework group  C1[X(H10NaO5)]
 Deg. of freedom    42
 Full point group                 C1      NOp   1
 Largest Abelian subgroup         C1      NOp   1
 Largest concise Abelian subgroup C1      NOp   1
                         Standard orientation:                         
 ---------------------------------------------------------------------
 Center     Atomic      Atomic             Coordinates (Angstroms)
 Number     Number       Type             X           Y           Z
 ---------------------------------------------------------------------
      1          8           0       -0.806244   -0.881478    1.875904
      2          1           0       -0.444857   -0.871507    2.761262
      3          1           0       -0.948804   -1.807946    1.684393
      4          8           0        0.782630   -1.882875   -0.567346
      5          1           0        1.209968   -1.987911   -1.417139
      6          1           0        1.470302   -2.068907    0.071680
      7          8           0       -0.530732    2.343759    0.224661
      8          1           0       -1.277209    2.557540   -0.335265
      9          1           0       -0.070481    3.175240    0.338150
     10          8           0        2.457755    0.600129   -0.326224
     11          1           0        2.712821    1.125219    0.432072
     12          1           0        3.283290    0.261857   -0.672378
     13          8           0       -2.111567   -0.300318   -1.272579
     14          1           0       -2.794388    0.334768   -1.059503
     15          1           0       -2.581215   -1.124034   -1.401142
     16         11           0        0.100531    0.124722    0.011140
 ---------------------------------------------------------------------
 Rotational constants (GHZ):           1.6692552           1.4927397           1.1792295
 Standard basis: Aug-CC-pVDZ (5D, 7F)
 There are   244 symmetry adapted cartesian basis functions of A   symmetry.
 There are   232 symmetry adapted basis functions of A   symmetry.
   232 basis functions,   406 primitive gaussians,   244 cartesian basis functions
    30 alpha electrons       30 beta electrons
       nuclear repulsion energy       305.2582688596 Hartrees.
 NAtoms=   16 NActive=   16 NUniq=   16 SFac= 1.00D+00 NAtFMM=   60 NAOKFM=F Big=F
 Integral buffers will be    131072 words long.
 Raffenetti 2 integral format.
 Two-electron integral symmetry is turned on.
 Nuclear repulsion after empirical dispersion term =      305.2498827782 Hartrees.
 One-electron integrals computed using PRISM.
 NBasis=   232 RedAO= T EigKep=  2.91D-04  NBF=   232
 NBsUse=   232 1.00D-06 EigRej= -1.00D+00 NBFU=   232
 ExpMin= 6.16D-03 ExpMax= 3.17D+04 ExpMxC= 1.08D+03 IAcc=3 IRadAn=         5 AccDes= 0.00D+00
 Harris functional with IExCor=  402 and IRadAn=       5 diagonalized for initial guess.
 HarFok:  IExCor=  402 AccDes= 0.00D+00 IRadAn=         5 IDoV= 1 UseB2=F ITyADJ=14
 ICtDFT=  3500011 ScaDFX=  1.000000  1.000000  1.000000  1.000000
 FoFCou: FMM=F IPFlag=           0 FMFlag=      100000 FMFlg1=           0
         NFxFlg=           0 DoJE=T BraDBF=F KetDBF=T FulRan=T
         wScrn=  0.000000 ICntrl=       500 IOpCl=  0 I1Cent=   200000004 NGrid=           0
         NMat0=    1 NMatS0=      1 NMatT0=    0 NMatD0=    1 NMtDS0=    0 NMtDT0=    0
 Petite list used in FoFCou.
 Requested convergence on RMS density matrix=1.00D-08 within 500 cycles.
 Requested convergence on MAX density matrix=1.00D-06.
 Requested convergence on             energy=1.00D-06.
 No special actions if energy rises.
 SCF Done:  E(RB3LYP) =  -544.445654555     A.U. after   10 cycles
            NFock= 10  Conv=0.43D-08     -V/T= 2.0054
 DoSCS=F DFT=T ScalE2(SS,OS)=  1.000000  1.000000
 Range of M.O.s used for correlation:     1   232
 NBasis=   232 NAE=    30 NBE=    30 NFC=     0 NFV=     0
 NROrb=    232 NOA=    30 NOB=    30 NVA=   202 NVB=   202

 **** Warning!!: The largest alpha MO coefficient is  0.13242171D+02

 Symmetrizing basis deriv contribution to polar:
 IMax=3 JMax=2 DiffMx= 0.00D+00
 G2DrvN: will do    17 centers at a time, making    1 passes.
 Calling FoFCou, ICntrl=  3107 FMM=F I1Cent=   0 AccDes= 1.00D-11.
 End of G2Drv F.D. properties file   721 does not exist.
 End of G2Drv F.D. properties file   722 does not exist.
 End of G2Drv F.D. properties file   788 does not exist.
          IDoAtm=1111111111111111
          Differentiating once with respect to electric field.
                with respect to dipole field.
          Differentiating once with respect to nuclear coordinates.
 Keep R1 ints in memory in canonical form, NReq=408195318.
          There are    51 degrees of freedom in the 1st order CPHF.  IDoFFX=6 NUNeed=     3.
     48 vectors produced by pass  0 Test12= 1.19D-14 1.96D-09 XBig12= 2.22D+01 1.18D+00.
 AX will form    48 AO Fock derivatives at one time.
     48 vectors produced by pass  1 Test12= 1.19D-14 1.96D-09 XBig12= 2.20D+00 2.80D-01.
     48 vectors produced by pass  2 Test12= 1.19D-14 1.96D-09 XBig12= 2.66D-02 2.02D-02.
     48 vectors produced by pass  3 Test12= 1.19D-14 1.96D-09 XBig12= 5.59D-05 7.27D-04.
     48 vectors produced by pass  4 Test12= 1.19D-14 1.96D-09 XBig12= 6.80D-08 2.48D-05.
     19 vectors produced by pass  5 Test12= 1.19D-14 1.96D-09 XBig12= 5.06D-11 7.84D-07.
      3 vectors produced by pass  6 Test12= 1.19D-14 1.96D-09 XBig12= 3.80D-14 2.20D-08.
 InvSVY:  IOpt=1 It=  1 EMax= 2.66D-15
 Solved reduced A of dimension   262 with    51 vectors.
 Isotropic polarizability for W=    0.000000       46.19 Bohr**3.
 End of Minotr F.D. properties file   721 does not exist.
 End of Minotr F.D. properties file   722 does not exist.
 End of Minotr F.D. properties file   788 does not exist.

 **********************************************************************

            Population analysis using the SCF Density.

 **********************************************************************

 Orbital symmetries:
       Occupied  (A) (A) (A) (A) (A) (A) (A) (A) (A) (A) (A) (A)
                 (A) (A) (A) (A) (A) (A) (A) (A) (A) (A) (A) (A)
                 (A) (A) (A) (A) (A) (A)
       Virtual   (A) (A) (A) (A) (A) (A) (A) (A) (A) (A) (A) (A)
                 (A) (A) (A) (A) (A) (A) (A) (A) (A) (A) (A) (A)
                 (A) (A) (A) (A) (A) (A) (A) (A) (A) (A) (A) (A)
                 (A) (A) (A) (A) (A) (A) (A) (A) (A) (A) (A) (A)
                 (A) (A) (A) (A) (A) (A) (A) (A) (A) (A) (A) (A)
                 (A) (A) (A) (A) (A) (A) (A) (A) (A) (A) (A) (A)
                 (A) (A) (A) (A) (A) (A) (A) (A) (A) (A) (A) (A)
                 (A) (A) (A) (A) (A) (A) (A) (A) (A) (A) (A) (A)
                 (A) (A) (A) (A) (A) (A) (A) (A) (A) (A) (A) (A)
                 (A) (A) (A) (A) (A) (A) (A) (A) (A) (A) (A) (A)
                 (A) (A) (A) (A) (A) (A) (A) (A) (A) (A) (A) (A)
                 (A) (A) (A) (A) (A) (A) (A) (A) (A) (A) (A) (A)
                 (A) (A) (A) (A) (A) (A) (A) (A) (A) (A) (A) (A)
                 (A) (A) (A) (A) (A) (A) (A) (A) (A) (A) (A) (A)
                 (A) (A) (A) (A) (A) (A) (A) (A) (A) (A) (A) (A)
                 (A) (A) (A) (A) (A) (A) (A) (A) (A) (A) (A) (A)
                 (A) (A) (A) (A) (A) (A) (A) (A) (A) (A)
 The electronic state is 1-A.
 Alpha  occ. eigenvalues --  -38.57981 -19.31946 -19.31664 -19.31545 -19.31168
 Alpha  occ. eigenvalues --  -19.30122  -2.31697  -1.25160  -1.25060  -1.24977
 Alpha  occ. eigenvalues --   -1.18770  -1.18447  -1.18232  -1.17867  -1.16760
 Alpha  occ. eigenvalues --   -0.70324  -0.70125  -0.69964  -0.69291  -0.68261
 Alpha  occ. eigenvalues --   -0.57828  -0.57173  -0.56825  -0.56170  -0.54964
 Alpha  occ. eigenvalues --   -0.49613  -0.48454  -0.48088  -0.47757  -0.46720
 Alpha virt. eigenvalues --   -0.17211  -0.14478  -0.13695  -0.12538  -0.10632
 Alpha virt. eigenvalues --   -0.08824  -0.08366  -0.07815  -0.07030  -0.06553
 Alpha virt. eigenvalues --   -0.05918  -0.05508  -0.05258  -0.04964  -0.04698
 Alpha virt. eigenvalues --   -0.04013  -0.03148  -0.02260  -0.00535   0.00074
 Alpha virt. eigenvalues --    0.00106   0.00489   0.00948   0.01072   0.01908
 Alpha virt. eigenvalues --    0.02199   0.02348   0.02549   0.02975   0.03528
 Alpha virt. eigenvalues --    0.04173   0.04839   0.04910   0.05540   0.05835
 Alpha virt. eigenvalues --    0.06727   0.07011   0.07298   0.07623   0.08102
 Alpha virt. eigenvalues --    0.08449   0.09345   0.10494   0.10765   0.12213
 Alpha virt. eigenvalues --    0.13273   0.15283   0.15836   0.16515   0.17002
 Alpha virt. eigenvalues --    0.18667   0.18812   0.19527   0.19897   0.20917
 Alpha virt. eigenvalues --    0.21432   0.22237   0.23874   0.24195   0.25070
 Alpha virt. eigenvalues --    0.26303   0.27053   0.27286   0.28274   0.29508
 Alpha virt. eigenvalues --    0.30783   0.31365   0.32571   0.32970   0.33629
 Alpha virt. eigenvalues --    0.34171   0.35108   0.35460   0.36018   0.37082
 Alpha virt. eigenvalues --    0.37322   0.38128   0.39433   0.39798   0.41220
 Alpha virt. eigenvalues --    0.41475   0.41753   0.42497   0.43704   0.44289
 Alpha virt. eigenvalues --    0.45152   0.46491   0.46562   0.47222   0.50389
 Alpha virt. eigenvalues --    0.50699   0.56697   0.58857   0.60395   0.60844
 Alpha virt. eigenvalues --    0.63903   0.65931   0.68219   0.70687   0.70880
 Alpha virt. eigenvalues --    0.71638   0.79768   0.81152   0.81604   0.82566
 Alpha virt. eigenvalues --    0.83066   0.84635   0.85936   0.87510   0.88404
 Alpha virt. eigenvalues --    0.89749   0.90803   0.91761   0.93205   0.96027
 Alpha virt. eigenvalues --    0.98857   1.01514   1.02378   1.04057   1.04289
 Alpha virt. eigenvalues --    1.06574   1.09905   1.12294   1.14179   1.15472
 Alpha virt. eigenvalues --    1.16482   1.20676   1.21859   1.24974   1.26661
 Alpha virt. eigenvalues --    1.29380   1.35600   1.41207   1.42709   1.48420
 Alpha virt. eigenvalues --    1.53427   1.62125   1.63573   1.64698   1.65769
 Alpha virt. eigenvalues --    1.66890   1.70424   1.71649   1.74069   1.75669
 Alpha virt. eigenvalues --    1.77131   1.77564   1.78606   1.81004   1.84336
 Alpha virt. eigenvalues --    1.87610   1.96861   2.00752   2.01657   2.02249
 Alpha virt. eigenvalues --    2.03400   2.03981   2.04865   2.04968   2.06147
 Alpha virt. eigenvalues --    2.08340   2.16283   2.17810   2.19648   2.20507
 Alpha virt. eigenvalues --    2.21583   2.30165   2.35547   2.36245   2.39418
 Alpha virt. eigenvalues --    2.42740   2.45078   2.61642   2.63893   2.64323
 Alpha virt. eigenvalues --    2.68790   2.71915   3.16808   3.17048   3.17778
 Alpha virt. eigenvalues --    3.18306   3.18783   3.19191   3.20768   3.21501
 Alpha virt. eigenvalues --    3.22523   3.23683   3.24621   3.25441   3.26882
 Alpha virt. eigenvalues --    3.28653   3.32119   3.53843   3.54160   3.55610
 Alpha virt. eigenvalues --    3.56122   3.56508   3.76700   3.77886   3.78692
 Alpha virt. eigenvalues --    3.80018   3.81795
          Condensed to atoms (all electrons):
               1          2          3          4          5          6
     1  O    7.602353   0.342021   0.339635  -0.023921   0.002273  -0.000329
     2  H    0.342021   0.610497  -0.100662   0.003295   0.000030   0.002007
     3  H    0.339635  -0.100662   0.616470   0.001541  -0.000193  -0.002228
     4  O   -0.023921   0.003295   0.001541   7.648275   0.335327   0.305490
     5  H    0.002273   0.000030  -0.000193   0.335327   0.616381  -0.096822
     6  H   -0.000329   0.002007  -0.002228   0.305490  -0.096822   0.631078
     7  O   -0.005437   0.003346  -0.001622  -0.004505   0.001364   0.000986
     8  H    0.000033   0.000209  -0.000386  -0.000154  -0.000224  -0.000153
     9  H    0.000903  -0.000054  -0.000156  -0.000480  -0.000027  -0.000028
    10  O   -0.001920   0.000554   0.001385  -0.020807  -0.004821  -0.002469
    11  H    0.000025   0.000278  -0.000338   0.000964  -0.000250   0.000899
    12  H    0.000694  -0.000073   0.000224   0.002725   0.000465   0.001215
    13  O   -0.007634   0.001572  -0.001819  -0.019305  -0.002244   0.001308
    14  H    0.002862  -0.000069  -0.000291   0.000108  -0.000839   0.000866
    15  H    0.001912   0.000682  -0.000265   0.004370   0.001116  -0.000642
    16  Na   0.005391  -0.001179  -0.011721  -0.020514   0.009494   0.019837
               7          8          9         10         11         12
     1  O   -0.005437   0.000033   0.000903  -0.001920   0.000025   0.000694
     2  H    0.003346   0.000209  -0.000054   0.000554   0.000278  -0.000073
     3  H   -0.001622  -0.000386  -0.000156   0.001385  -0.000338   0.000224
     4  O   -0.004505  -0.000154  -0.000480  -0.020807   0.000964   0.002725
     5  H    0.001364  -0.000224  -0.000027  -0.004821  -0.000250   0.000465
     6  H    0.000986  -0.000153  -0.000028  -0.002469   0.000899   0.001215
     7  O    7.631420   0.358607   0.333489  -0.021245  -0.000754   0.000910
     8  H    0.358607   0.623300  -0.100038   0.000610  -0.000194   0.000031
     9  H    0.333489  -0.100038   0.583998   0.002496   0.000185   0.000010
    10  O   -0.021245   0.000610   0.002496   7.541404   0.356719   0.331084
    11  H   -0.000754  -0.000194   0.000185   0.356719   0.619773  -0.099012
    12  H    0.000910   0.000031   0.000010   0.331084  -0.099012   0.611678
    13  O   -0.011485   0.003877   0.000107   0.003704   0.000268   0.000272
    14  H   -0.000403   0.003293  -0.000466   0.000346  -0.000164   0.000032
    15  H    0.000576  -0.001053   0.000034   0.000077   0.000053  -0.000057
    16  Na  -0.029048  -0.016039   0.006719   0.009751  -0.013976   0.013829
              13         14         15         16
     1  O   -0.007634   0.002862   0.001912   0.005391
     2  H    0.001572  -0.000069   0.000682  -0.001179
     3  H   -0.001819  -0.000291  -0.000265  -0.011721
     4  O   -0.019305   0.000108   0.004370  -0.020514
     5  H   -0.002244  -0.000839   0.001116   0.009494
     6  H    0.001308   0.000866  -0.000642   0.019837
     7  O   -0.011485  -0.000403   0.000576  -0.029048
     8  H    0.003877   0.003293  -0.001053  -0.016039
     9  H    0.000107  -0.000466   0.000034   0.006719
    10  O    0.003704   0.000346   0.000077   0.009751
    11  H    0.000268  -0.000164   0.000053  -0.013976
    12  H    0.000272   0.000032  -0.000057   0.013829
    13  O    7.535361   0.347970   0.335460   0.010434
    14  H    0.347970   0.635032  -0.102389  -0.011631
    15  H    0.335460  -0.102389   0.611666  -0.002828
    16  Na   0.010434  -0.011631  -0.002828  10.335344
 Mulliken charges:
               1
     1  O   -0.258862
     2  H    0.137546
     3  H    0.160424
     4  O   -0.212409
     5  H    0.138972
     6  H    0.138986
     7  O   -0.256199
     8  H    0.128283
     9  H    0.173310
    10  O   -0.196867
    11  H    0.135524
    12  H    0.135973
    13  O   -0.197847
    14  H    0.125743
    15  H    0.151288
    16  Na   0.696137
 Sum of Mulliken charges =   1.00000
 Mulliken charges with hydrogens summed into heavy atoms:
               1
     1  O    0.039108
     4  O    0.065548
     7  O    0.045393
    10  O    0.074629
    13  O    0.079184
    16  Na   0.696137
 APT charges:
               1
     1  O   -0.546233
     2  H    0.287067
     3  H    0.292245
     4  O   -0.544234
     5  H    0.294033
     6  H    0.287739
     7  O   -0.552227
     8  H    0.284868
     9  H    0.296543
    10  O   -0.549813
    11  H    0.278302
    12  H    0.292723
    13  O   -0.548454
    14  H    0.274625
    15  H    0.290581
    16  Na   0.862236
 Sum of APT charges =   1.00000
 APT charges with hydrogens summed into heavy atoms:
               1
     1  O    0.033079
     4  O    0.037538
     7  O    0.029184
    10  O    0.021212
    13  O    0.016752
    16  Na   0.862236
 Electronic spatial extent (au):  <R**2>=           1147.7867
 Charge=              1.0000 electrons
 Dipole moment (field-independent basis, Debye):
    X=              1.9633    Y=              0.2568    Z=              0.8696  Tot=              2.1625
 Quadrupole moment (field-independent basis, Debye-Ang):
   XX=             -9.0233   YY=            -15.2802   ZZ=            -27.2167
   XY=             -1.6392   XZ=              3.4254   YZ=             -0.8918
 Traceless Quadrupole moment (field-independent basis, Debye-Ang):
   XX=              8.1501   YY=              1.8932   ZZ=            -10.0433
   XY=             -1.6392   XZ=              3.4254   YZ=             -0.8918
 Octapole moment (field-independent basis, Debye-Ang**2):
  XXX=             19.2023  YYY=             31.5860  ZZZ=             22.3378  XYY=             -3.0821
  XXY=             -1.6187  XXZ=            -19.9173  XZZ=              4.8068  YZZ=            -18.1569
  YYZ=              2.8880  XYZ=             10.2126
 Hexadecapole moment (field-independent basis, Debye-Ang**3):
 XXXX=           -244.3196 YYYY=           -280.4788 ZZZZ=           -187.2639 XXXY=             13.2408
 XXXZ=             30.0998 YYYX=            -17.3111 YYYZ=             -3.2051 ZZZX=            -12.6892
 ZZZY=            -12.9333 XXYY=           -109.6083 XXZZ=           -115.9669 YYZZ=            -90.9841
 XXYZ=             18.1863 YYXZ=             11.4817 ZZXY=              4.2158
 N-N= 3.052498827782D+02 E-N=-1.893895902035D+03  KE= 5.415206208757D+02
  Exact polarizability:  47.194   0.253  46.464   0.363   0.714  44.898
 Approx polarizability:  56.133   0.025  55.453   1.536   1.666  55.153
 Calling FoFJK, ICntrl=    100127 FMM=F ISym2X=0 I1Cent= 0 IOpClX= 0 NMat=1 NMatS=1 NMatT=0.
 ***** Axes restored to original set *****
 -------------------------------------------------------------------
 Center     Atomic                   Forces (Hartrees/Bohr)
 Number     Number              X              Y              Z
 -------------------------------------------------------------------
      1        8          -0.002120685    0.008571098    0.003848013
      2        1          -0.007604189   -0.007815172    0.001066166
      3        1           0.009319613   -0.003836314   -0.004496282
      4        8           0.001790427   -0.002209814   -0.007103180
      5        1           0.008477716    0.005288996    0.002167524
      6        1           0.000922099   -0.007543626    0.007145641
      7        8           0.006764886   -0.006583160    0.002044841
      8        1          -0.000515303    0.005666540   -0.007143878
      9        1          -0.006957692    0.002660643    0.004938240
     10        8          -0.000356055   -0.002135957   -0.010958715
     11        1          -0.009296513   -0.000799500    0.005773847
     12        1           0.005551766    0.002365998    0.006891468
     13        8          -0.004999025   -0.000190243    0.013572687
     14        1          -0.005015559    0.002549647   -0.007918241
     15        1           0.007920702   -0.003015320   -0.003506376
     16       11          -0.003882186    0.007026184   -0.006321755
 -------------------------------------------------------------------
 Cartesian Forces:  Max     0.013572687 RMS     0.005923629

 GradGradGradGradGradGradGradGradGradGradGradGradGradGradGradGradGradGrad
 Berny optimization.
 Search for a local minimum.
 Step number   1 out of a maximum of  500
 All quantities printed in internal units (Hartrees-Bohrs-Radians)
 Second derivative matrix not updated -- analytic derivatives used.
 ITU=  0
     Eigenvalues ---   -0.00793  -0.00716  -0.00669  -0.00595  -0.00557
     Eigenvalues ---   -0.00527  -0.00421  -0.00357  -0.00313  -0.00286
     Eigenvalues ---   -0.00259  -0.00229  -0.00158  -0.00071  -0.00059
     Eigenvalues ---    0.00020   0.00142   0.00198   0.00244   0.00387
     Eigenvalues ---    0.00486   0.00768   0.00887   0.01833   0.02217
     Eigenvalues ---    0.03650   0.08026   0.15452   0.15807   0.16152
     Eigenvalues ---    0.16255   0.16452   0.86749   0.89797   0.94319
     Eigenvalues ---    0.96679   0.97152   1.08662   1.12443   1.17773
     Eigenvalues ---    1.25080   1.26935
 RFO step:  Lambda=-1.39588263D-02 EMin=-7.93017410D-03
 Linear search not attempted -- first point.
 Maximum step size (   0.100) exceeded in Quadratic search.
    -- Step size scaled by   0.143
 B after Tr=     0.000933   -0.000606    0.000453
         Rot=    1.000000    0.000283   -0.000294    0.000253 Ang=   0.06 deg.
 Variable       Old X    -DE/DX   Delta X   Delta X   Delta X     New X
                                 (Linear)    (Quad)   (Total)
    X1       -0.64517  -0.00212   0.00000   0.00643   0.00434  -0.64083
    Y1       -3.91202   0.00857   0.00000  -0.00213  -0.00341  -3.91543
    Z1       -1.80263   0.00385   0.00000   0.02964   0.03268  -1.76995
    X2       -1.61838  -0.00760   0.00000   0.00816   0.00577  -1.61261
    Y2       -5.26884  -0.00782   0.00000  -0.01834  -0.01876  -5.28760
    Z2       -1.11137   0.00107   0.00000   0.00533   0.00973  -1.10164
    X3        0.96338   0.00932   0.00000  -0.00065  -0.00336   0.96002
    Y3       -4.64899  -0.00384   0.00000   0.00247   0.00014  -4.64886
    Z3       -2.17434  -0.00450   0.00000  -0.02113  -0.01862  -2.19295
    X4        3.76131   0.00179   0.00000   0.01570   0.01655   3.77786
    Y4       -1.40461  -0.00221   0.00000  -0.00314  -0.00505  -1.40967
    Z4        1.06259  -0.00710   0.00000   0.00310   0.00213   1.06472
    X5        4.91272   0.00848   0.00000  -0.00219  -0.00028   4.91244
    Y5       -0.25320   0.00529   0.00000   0.00917   0.00713  -0.24607
    Z5        1.84929   0.00217   0.00000   0.01624   0.01394   1.86323
    X6        3.39225   0.00092   0.00000   0.01669   0.01767   3.40992
    Y6       -2.62443  -0.00754   0.00000  -0.01179  -0.01280  -2.63723
    Z6        2.34572   0.00715   0.00000  -0.00141  -0.00147   2.34425
    X7       -3.66890   0.00676   0.00000   0.01401   0.01551  -3.65340
    Y7        2.19371  -0.00658   0.00000   0.02247   0.02318   2.21689
    Z7       -0.94711   0.00204   0.00000   0.00261   0.00396  -0.94315
    X8       -3.43609  -0.00052   0.00000  -0.01833  -0.01710  -3.45319
    Y8        3.32754   0.00567   0.00000   0.00159   0.00140   3.32894
    Z8       -2.33740  -0.00714   0.00000  -0.02212  -0.02152  -2.35892
    X9       -5.01611  -0.00696   0.00000   0.00785   0.01029  -5.00582
    Y9        2.92505   0.00266   0.00000   0.01620   0.01814   2.94319
    Z9        0.01285   0.00494   0.00000   0.00264   0.00437   0.01722
   X10       -0.12416  -0.00036   0.00000  -0.01011  -0.00608  -0.13024
   Y10        0.91104  -0.00214   0.00000  -0.02559  -0.02358   0.88746
   Z10        4.49564  -0.01096   0.00000  -0.00480  -0.00477   4.49087
   X11       -1.74743  -0.00930   0.00000  -0.01550  -0.01144  -1.75887
   Y11        0.32997  -0.00080   0.00000  -0.00952  -0.00638   0.32359
   Z11        5.04124   0.00577   0.00000   0.00267   0.00398   5.04522
   X12        0.85453   0.00555   0.00000  -0.01298  -0.00800   0.84654
   Y12        1.01235   0.00237   0.00000   0.00010   0.00247   1.01481
   Z12        6.01292   0.00689   0.00000  -0.00166  -0.00227   6.01065
   X13        1.87718  -0.00500   0.00000  -0.03148  -0.03223   1.84495
   Y13        1.60411  -0.00019   0.00000  -0.02533  -0.02927   1.57485
   Z13       -4.23174   0.01357   0.00000   0.00682   0.00529  -4.22645
   X14        0.61002  -0.00502   0.00000   0.00031  -0.00094   0.60908
   Y14        2.02928   0.00255   0.00000   0.01810   0.01409   2.04338
   Z14       -5.44870  -0.00792   0.00000  -0.01410  -0.01517  -5.46387
   X15        3.22860   0.00792   0.00000   0.00055  -0.00111   3.22749
   Y15        0.90493  -0.00302   0.00000   0.01741   0.01223   0.91717
   Z15       -5.20873  -0.00351   0.00000   0.01579   0.01382  -5.19491
   X16       -0.00000  -0.00388   0.00000   0.00949   0.01042   0.01042
   Y16        0.00000   0.00703   0.00000   0.02111   0.02048   0.02048
   Z16        0.00000  -0.00632   0.00000  -0.02651  -0.02607  -0.02607
         Item               Value     Threshold  Converged?
 Maximum Force            0.013573     0.000450     NO 
 RMS     Force            0.005924     0.000300     NO 
 Maximum Displacement     0.032683     0.001800     NO 
 RMS     Displacement     0.014252     0.001200     NO 
 Predicted change in Energy=-1.305779D-03
 GradGradGradGradGradGradGradGradGradGradGradGradGradGradGradGradGradGrad

                          Input orientation:                          
 ---------------------------------------------------------------------
 Center     Atomic      Atomic             Coordinates (Angstroms)
 Number     Number       Type             X           Y           Z
 ---------------------------------------------------------------------
      1          8           0       -0.339113   -2.071957   -0.936615
      2          1           0       -0.853356   -2.798076   -0.582963
      3          1           0        0.508023   -2.460068   -1.160461
      4          8           0        1.999158   -0.745965    0.563425
      5          1           0        2.599551   -0.130217    0.985977
      6          1           0        1.804451   -1.395563    1.240522
      7          8           0       -1.933295    1.173126   -0.499096
      8          1           0       -1.827351    1.761599   -1.248288
      9          1           0       -2.648967    1.557467    0.009115
     10          8           0       -0.068918    0.469621    2.376466
     11          1           0       -0.930753    0.171234    2.669814
     12          1           0        0.447967    0.537016    3.180697
     13          8           0        0.976303    0.833373   -2.236540
     14          1           0        0.322311    1.081308   -2.891356
     15          1           0        1.707914    0.485343   -2.749028
     16         11           0        0.005513    0.010838   -0.013798
 ---------------------------------------------------------------------
                    Distance matrix (angstroms):
                    1          2          3          4          5
     1  O    0.000000
     2  H    0.957478   0.000000
     3  H    0.958320   1.516939   0.000000
     4  O    3.078292   3.696241   2.851915   0.000000
     5  H    4.012787   4.636983   3.796037   0.958211   0.000000
     6  H    3.129265   3.515121   2.928928   0.958305   1.515941
     7  O    3.641895   4.116278   4.426910   4.502893   4.944779
     8  H    4.124092   4.709773   4.825366   4.920605   5.307388
     9  H    4.404833   4.748214   5.241668   5.217100   5.599061
    10  O    4.184391   4.477880   4.628800   3.006943   3.068223
    11  H    4.288154   4.404923   4.864651   3.723239   3.922910
    12  H    4.937458   5.194364   5.275583   3.301871   3.145045
    13  O    3.443990   4.389692   3.496282   3.373476   3.734710
    14  H    3.768497   4.664814   3.946116   4.252793   4.656965
    15  H    3.743653   4.693909   3.555099   3.545883   3.888984
    16  Na   2.303994   2.991923   2.769969   2.209198   2.783609
                    6          7          8          9         10
     6  H    0.000000
     7  O    4.857486   0.000000
     8  H    5.417733   0.958548   0.000000
     9  H    5.483583   0.958219   1.515845   0.000000
    10  O    2.877289   3.498525   4.230855   3.666663   0.000000
    11  H    3.461079   3.471436   4.322577   3.457343   0.958043
    12  H    3.056009   4.428986   5.127630   4.548764   0.958384
    13  O    4.212356   3.405863   3.114277   4.325490   4.743904
    14  H    5.040242   3.289240   2.789895   4.179469   5.317628
    15  H    4.411761   4.335163   4.047115   5.266803   5.424764
    16  Na   2.605275   2.312013   2.819312   3.072272   2.435033
                   11         12         13         14         15
    11  H    0.000000
    12  H    1.515146   0.000000
    13  O    5.305431   5.451002   0.000000
    14  H    5.772782   6.097694   0.958103   0.000000
    15  H    6.035319   6.062324   0.958657   1.515033   0.000000
    16  Na   2.846769   3.267633   2.561168   3.086520   3.256502
                   16
    16  Na   0.000000
 Stoichiometry    H10NaO5(1+)
 Framework group  C1[X(H10NaO5)]
 Deg. of freedom    42
 Full point group                 C1      NOp   1
 Largest Abelian subgroup         C1      NOp   1
 Largest concise Abelian subgroup C1      NOp   1
                         Standard orientation:                         
 ---------------------------------------------------------------------
 Center     Atomic      Atomic             Coordinates (Angstroms)
 Number     Number       Type             X           Y           Z
 ---------------------------------------------------------------------
      1          8           0       -0.766995   -0.909364    1.872381
      2          1           0       -0.415684   -0.903774    2.763063
      3          1           0       -0.918669   -1.835094    1.676438
      4          8           0        0.820812   -1.870851   -0.583284
      5          1           0        1.253727   -1.950727   -1.434384
      6          1           0        1.511789   -2.049846    0.056138
      7          8           0       -0.575511    2.333053    0.225121
      8          1           0       -1.341396    2.540937   -0.312483
      9          1           0       -0.131714    3.173592    0.346457
     10          8           0        2.442074    0.647400   -0.315651
     11          1           0        2.692167    1.181048    0.439676
     12          1           0        3.274161    0.337052   -0.675949
     13          8           0       -2.105644   -0.329701   -1.247407
     14          1           0       -2.811403    0.289803   -1.057460
     15          1           0       -2.554270   -1.161663   -1.407395
     16         11           0        0.083946    0.128580   -0.000307
 ---------------------------------------------------------------------
 Rotational constants (GHZ):           1.6713783           1.5006909           1.1797623
 Standard basis: Aug-CC-pVDZ (5D, 7F)
 There are   244 symmetry adapted cartesian basis functions of A   symmetry.
 There are   232 symmetry adapted basis functions of A   symmetry.
   232 basis functions,   406 primitive gaussians,   244 cartesian basis functions
    30 alpha electrons       30 beta electrons
       nuclear repulsion energy       305.3832670208 Hartrees.
 NAtoms=   16 NActive=   16 NUniq=   16 SFac= 1.00D+00 NAtFMM=   60 NAOKFM=F Big=F
 Integral buffers will be    131072 words long.
 Raffenetti 2 integral format.
 Two-electron integral symmetry is turned on.
 Nuclear repulsion after empirical dispersion term =      305.3749095702 Hartrees.
 One-electron integrals computed using PRISM.
 NBasis=   232 RedAO= T EigKep=  2.88D-04  NBF=   232
 NBsUse=   232 1.00D-06 EigRej= -1.00D+00 NBFU=   232
 Initial guess from the checkpoint file:  "sim004_type3_coord-5_3-2-0_10C_b1_id81790_step1500.chk"
 B after Tr=     0.000000   -0.000000   -0.000000
         Rot=    0.999946   -0.002428   -0.001835   -0.009954 Ang=  -1.19 deg.
 ExpMin= 6.16D-03 ExpMax= 3.17D+04 ExpMxC= 1.08D+03 IAcc=3 IRadAn=         5 AccDes= 0.00D+00
 Harris functional with IExCor=  402 and IRadAn=       5 diagonalized for initial guess.
 HarFok:  IExCor=  402 AccDes= 0.00D+00 IRadAn=         5 IDoV= 1 UseB2=F ITyADJ=14
 ICtDFT=  3500011 ScaDFX=  1.000000  1.000000  1.000000  1.000000
 FoFCou: FMM=F IPFlag=           0 FMFlag=      100000 FMFlg1=           0
         NFxFlg=           0 DoJE=T BraDBF=F KetDBF=T FulRan=T
         wScrn=  0.000000 ICntrl=       500 IOpCl=  0 I1Cent=   200000004 NGrid=           0
         NMat0=    1 NMatS0=      1 NMatT0=    0 NMatD0=    1 NMtDS0=    0 NMtDT0=    0
 Petite list used in FoFCou.
 Requested convergence on RMS density matrix=1.00D-08 within 500 cycles.
 Requested convergence on MAX density matrix=1.00D-06.
 Requested convergence on             energy=1.00D-06.
 No special actions if energy rises.
 SCF Done:  E(RB3LYP) =  -544.446954091     A.U. after    8 cycles
            NFock=  8  Conv=0.91D-08     -V/T= 2.0055
 DoSCS=F DFT=T ScalE2(SS,OS)=  1.000000  1.000000
 Range of M.O.s used for correlation:     1   232
 NBasis=   232 NAE=    30 NBE=    30 NFC=     0 NFV=     0
 NROrb=    232 NOA=    30 NOB=    30 NVA=   202 NVB=   202

 **** Warning!!: The largest alpha MO coefficient is  0.13470266D+02

 Symmetrizing basis deriv contribution to polar:
 IMax=3 JMax=2 DiffMx= 0.00D+00
 G2DrvN: will do    17 centers at a time, making    1 passes.
 Calling FoFCou, ICntrl=  3107 FMM=F I1Cent=   0 AccDes= 1.00D-11.
 End of G2Drv F.D. properties file   721 does not exist.
 End of G2Drv F.D. properties file   722 does not exist.
 End of G2Drv F.D. properties file   788 does not exist.
          IDoAtm=1111111111111111
          Differentiating once with respect to electric field.
                with respect to dipole field.
          Differentiating once with respect to nuclear coordinates.
 Keep R1 ints in memory in canonical form, NReq=408195318.
          There are    51 degrees of freedom in the 1st order CPHF.  IDoFFX=6 NUNeed=     3.
     48 vectors produced by pass  0 Test12= 1.19D-14 1.96D-09 XBig12= 2.22D+01 1.18D+00.
 AX will form    48 AO Fock derivatives at one time.
     48 vectors produced by pass  1 Test12= 1.19D-14 1.96D-09 XBig12= 2.21D+00 2.77D-01.
     48 vectors produced by pass  2 Test12= 1.19D-14 1.96D-09 XBig12= 2.67D-02 1.98D-02.
     48 vectors produced by pass  3 Test12= 1.19D-14 1.96D-09 XBig12= 5.78D-05 8.01D-04.
     48 vectors produced by pass  4 Test12= 1.19D-14 1.96D-09 XBig12= 7.09D-08 2.51D-05.
     20 vectors produced by pass  5 Test12= 1.19D-14 1.96D-09 XBig12= 5.25D-11 7.78D-07.
      3 vectors produced by pass  6 Test12= 1.19D-14 1.96D-09 XBig12= 4.06D-14 2.36D-08.
 InvSVY:  IOpt=1 It=  1 EMax= 1.78D-15
 Solved reduced A of dimension   263 with    51 vectors.
 Isotropic polarizability for W=    0.000000       46.25 Bohr**3.
 End of Minotr F.D. properties file   721 does not exist.
 End of Minotr F.D. properties file   722 does not exist.
 End of Minotr F.D. properties file   788 does not exist.
 Calling FoFJK, ICntrl=    100127 FMM=F ISym2X=0 I1Cent= 0 IOpClX= 0 NMat=1 NMatS=1 NMatT=0.
 ***** Axes restored to original set *****
 -------------------------------------------------------------------
 Center     Atomic                   Forces (Hartrees/Bohr)
 Number     Number              X              Y              Z
 -------------------------------------------------------------------
      1        8          -0.001387121    0.007053079    0.003823652
      2        1          -0.006612054   -0.006823141    0.000656387
      3        1           0.007563030   -0.003220532   -0.004090001
      4        8           0.001825449   -0.001827677   -0.005989604
      5        1           0.007608078    0.004354952    0.001847046
      6        1           0.000981608   -0.006522613    0.006091122
      7        8           0.005973941   -0.005200644    0.001591399
      8        1          -0.000866855    0.004734385   -0.006111189
      9        1          -0.006001823    0.002242854    0.004295314
     10        8          -0.000448196   -0.002302199   -0.009382457
     11        1          -0.008198791   -0.000526476    0.005279440
     12        1           0.004689433    0.002298351    0.005595774
     13        8          -0.004682136   -0.000639631    0.011111830
     14        1          -0.003868848    0.002292050   -0.006690295
     15        1           0.006659239   -0.002200687   -0.002342752
     16       11          -0.003234952    0.006287931   -0.005685666
 -------------------------------------------------------------------
 Cartesian Forces:  Max     0.011111830 RMS     0.005052381

 GradGradGradGradGradGradGradGradGradGradGradGradGradGradGradGradGradGrad
 Berny optimization.
 Search for a local minimum.
 Step number   2 out of a maximum of  500
 All quantities printed in internal units (Hartrees-Bohrs-Radians)
 Second derivative matrix not updated -- analytic derivatives used.
 DE= -1.30D-03 DEPred=-1.31D-03 R= 9.95D-01
 TightC=F SS=  1.41D+00  RLast= 9.87D-02 DXNew= 1.6818D-01 2.9622D-01
 Trust test= 9.95D-01 RLast= 9.87D-02 DXMaxT set to 1.68D-01
 ITU=  1  0
 Linear search step of   0.188 exceeds DXMaxT=   0.168 but not scaled.
 Quintic linear search produced a step of  1.90758.
 B after Tr=    -0.000000   -0.000000    0.000000
         Rot=    1.000000   -0.000000    0.000000   -0.000000 Ang=   0.00 deg.
 Variable       Old X    -DE/DX   Delta X   Delta X   Delta X     New X
                                 (Linear)    (Quad)   (Total)
    X1       -0.64083  -0.00139   0.00828   0.00000   0.00828  -0.63255
    Y1       -3.91543   0.00705  -0.00651   0.00000  -0.00651  -3.92194
    Z1       -1.76995   0.00382   0.06235   0.00000   0.06235  -1.70760
    X2       -1.61261  -0.00661   0.01101   0.00000   0.01101  -1.60160
    Y2       -5.28760  -0.00682  -0.03578   0.00000  -0.03578  -5.32338
    Z2       -1.10164   0.00066   0.01855   0.00000   0.01855  -1.08309
    X3        0.96002   0.00756  -0.00641   0.00000  -0.00641   0.95362
    Y3       -4.64886  -0.00322   0.00026   0.00000   0.00026  -4.64860
    Z3       -2.19295  -0.00409  -0.03551   0.00000  -0.03551  -2.22847
    X4        3.77786   0.00183   0.03157   0.00000   0.03157   3.80943
    Y4       -1.40967  -0.00183  -0.00964   0.00000  -0.00964  -1.41931
    Z4        1.06472  -0.00599   0.00405   0.00000   0.00405   1.06877
    X5        4.91244   0.00761  -0.00054   0.00000  -0.00054   4.91190
    Y5       -0.24607   0.00435   0.01360   0.00000   0.01360  -0.23247
    Z5        1.86323   0.00185   0.02659   0.00000   0.02659   1.88982
    X6        3.40992   0.00098   0.03371   0.00000   0.03371   3.44363
    Y6       -2.63723  -0.00652  -0.02441   0.00000  -0.02441  -2.66164
    Z6        2.34425   0.00609  -0.00281   0.00000  -0.00281   2.34144
    X7       -3.65340   0.00597   0.02958   0.00000   0.02958  -3.62382
    Y7        2.21689  -0.00520   0.04422   0.00000   0.04422   2.26110
    Z7       -0.94315   0.00159   0.00755   0.00000   0.00755  -0.93561
    X8       -3.45319  -0.00087  -0.03263   0.00000  -0.03263  -3.48582
    Y8        3.32894   0.00473   0.00266   0.00000   0.00266   3.33160
    Z8       -2.35892  -0.00611  -0.04105   0.00000  -0.04105  -2.39998
    X9       -5.00582  -0.00600   0.01962   0.00000   0.01962  -4.98620
    Y9        2.94319   0.00224   0.03460   0.00000   0.03460   2.97778
    Z9        0.01722   0.00430   0.00834   0.00000   0.00834   0.02557
   X10       -0.13024  -0.00045  -0.01160   0.00000  -0.01160  -0.14184
   Y10        0.88746  -0.00230  -0.04498   0.00000  -0.04498   0.84247
   Z10        4.49087  -0.00938  -0.00910   0.00000  -0.00910   4.48177
   X11       -1.75887  -0.00820  -0.02182   0.00000  -0.02182  -1.78069
   Y11        0.32359  -0.00053  -0.01217   0.00000  -0.01217   0.31142
   Z11        5.04522   0.00528   0.00758   0.00000   0.00758   5.05280
   X12        0.84654   0.00469  -0.01526   0.00000  -0.01526   0.83128
   Y12        1.01481   0.00230   0.00471   0.00000   0.00471   1.01952
   Z12        6.01065   0.00560  -0.00434   0.00000  -0.00434   6.00631
   X13        1.84495  -0.00468  -0.06149   0.00000  -0.06149   1.78346
   Y13        1.57485  -0.00064  -0.05583   0.00000  -0.05583   1.51902
   Z13       -4.22645   0.01111   0.01009   0.00000   0.01009  -4.21636
   X14        0.60908  -0.00387  -0.00180   0.00000  -0.00180   0.60728
   Y14        2.04338   0.00229   0.02688   0.00000   0.02688   2.07026
   Z14       -5.46387  -0.00669  -0.02893   0.00000  -0.02893  -5.49280
   X15        3.22749   0.00666  -0.00211   0.00000  -0.00211   3.22538
   Y15        0.91717  -0.00220   0.02333   0.00000   0.02333   0.94050
   Z15       -5.19491  -0.00234   0.02636   0.00000   0.02636  -5.16855
   X16        0.01042  -0.00323   0.01987   0.00000   0.01987   0.03029
   Y16        0.02048   0.00629   0.03907   0.00000   0.03907   0.05955
   Z16       -0.02607  -0.00569  -0.04974   0.00000  -0.04974  -0.07581
         Item               Value     Threshold  Converged?
 Maximum Force            0.011112     0.000450     NO 
 RMS     Force            0.005052     0.000300     NO 
 Maximum Displacement     0.062346     0.001800     NO 
 RMS     Displacement     0.027187     0.001200     NO 
 Predicted change in Energy=-2.237862D-03
 GradGradGradGradGradGradGradGradGradGradGradGradGradGradGradGradGradGrad

                          Input orientation:                          
 ---------------------------------------------------------------------
 Center     Atomic      Atomic             Coordinates (Angstroms)
 Number     Number       Type             X           Y           Z
 ---------------------------------------------------------------------
      1          8           0       -0.334730   -2.075403   -0.903622
      2          1           0       -0.847529   -2.817011   -0.573144
      3          1           0        0.504633   -2.459931   -1.179253
      4          8           0        2.015865   -0.751067    0.565570
      5          1           0        2.599267   -0.123019    1.000049
      6          1           0        1.822289   -1.408482    1.239037
      7          8           0       -1.917642    1.196524   -0.495102
      8          1           0       -1.844616    1.763007   -1.270013
      9          1           0       -2.638585    1.575775    0.013531
     10          8           0       -0.075057    0.445816    2.371651
     11          1           0       -0.942298    0.164794    2.673827
     12          1           0        0.439892    0.539508    3.178402
     13          8           0        0.943766    0.803831   -2.231199
     14          1           0        0.321360    1.095534   -2.906667
     15          1           0        1.706795    0.497691   -2.735080
     16         11           0        0.016029    0.031511   -0.040118
 ---------------------------------------------------------------------
                    Distance matrix (angstroms):
                    1          2          3          4          5
     1  O    0.000000
     2  H    0.960292   0.000000
     3  H    0.963517   1.524210   0.000000
     4  O    3.072082   3.709962   2.872011   0.000000
     5  H    4.005510   4.648971   3.820734   0.961028   0.000000
     6  H    3.112636   3.520779   2.947862   0.960845   1.520929
     7  O    3.657596   4.154479   4.439048   4.515597   4.937524
     8  H    4.140941   4.738816   4.833262   4.959158   5.334640
     9  H    4.413617   4.780025   5.252568   5.232862   5.594123
    10  O    4.141424   4.462575   4.624752   3.011049   3.058901
    11  H    4.264477   4.409418   4.881498   3.746235   3.927729
    12  H    4.909249   5.195939   5.290557   3.313030   3.138004
    13  O    3.418625   4.366736   3.457104   3.374762   3.747092
    14  H    3.807555   4.703152   3.957130   4.282255   4.683605
    15  H    3.760701   4.710179   3.551524   3.542487   3.890113
    16  Na   2.303857   3.023893   2.782741   2.231285   2.789077
                    6          7          8          9         10
     6  H    0.000000
     7  O    4.876513   0.000000
     8  H    5.458926   0.962665   0.000000
     9  H    5.505184   0.960362   1.520831   0.000000
    10  O    2.884642   3.489549   4.257705   3.661859   0.000000
    11  H    3.489522   3.472445   4.349981   3.456216   0.960412
    12  H    3.076821   4.414099   5.148235   4.535117   0.961665
    13  O    4.208167   3.369852   3.101447   4.297435   4.727833
    14  H    5.070477   3.292260   2.795642   4.185625   5.332909
    15  H    4.409131   4.317686   4.044746   5.253518   5.408918
    16  Na   2.640529   2.302900   2.823601   3.071580   2.448791
                   11         12         13         14         15
    11  H    0.000000
    12  H    1.518373   0.000000
    13  O    5.293854   5.439443   0.000000
    14  H    5.796984   6.111569   0.963709   0.000000
    15  H    6.031981   6.047815   0.964277   1.518646   0.000000
    16  Na   2.881259   3.285818   2.501601   3.072860   3.215405
                   16
    16  Na   0.000000
 Stoichiometry    H10NaO5(1+)
 Framework group  C1[X(H10NaO5)]
 Deg. of freedom    42
 Full point group                 C1      NOp   1
 Largest Abelian subgroup         C1      NOp   1
 Largest concise Abelian subgroup C1      NOp   1
                         Standard orientation:                         
 ---------------------------------------------------------------------
 Center     Atomic      Atomic             Coordinates (Angstroms)
 Number     Number       Type             X           Y           Z
 ---------------------------------------------------------------------
      1          8           0       -0.686358   -0.960708    1.865725
      2          1           0       -0.353355   -0.962891    2.766428
      3          1           0       -0.851911   -1.887838    1.662285
      4          8           0        0.900462   -1.842242   -0.612700
      5          1           0        1.341882   -1.872388   -1.465820
      6          1           0        1.598341   -2.004532    0.027496
      7          8           0       -0.669647    2.307981    0.224568
      8          1           0       -1.473142    2.498491   -0.270229
      9          1           0       -0.261083    3.166421    0.360413
     10          8           0        2.406882    0.745547   -0.295746
     11          1           0        2.644479    1.297083    0.453751
     12          1           0        3.250170    0.492319   -0.682449
     13          8           0       -2.091441   -0.395281   -1.199081
     14          1           0       -2.842654    0.190591   -1.053586
     15          1           0       -2.496579   -1.242343   -1.418579
     16         11           0        0.051333    0.134792   -0.021985
 ---------------------------------------------------------------------
 Rotational constants (GHZ):           1.6754059           1.5150394           1.1805240
 Standard basis: Aug-CC-pVDZ (5D, 7F)
 There are   244 symmetry adapted cartesian basis functions of A   symmetry.
 There are   232 symmetry adapted basis functions of A   symmetry.
   232 basis functions,   406 primitive gaussians,   244 cartesian basis functions
    30 alpha electrons       30 beta electrons
       nuclear repulsion energy       305.5578322281 Hartrees.
 NAtoms=   16 NActive=   16 NUniq=   16 SFac= 1.00D+00 NAtFMM=   60 NAOKFM=F Big=F
 Integral buffers will be    131072 words long.
 Raffenetti 2 integral format.
 Two-electron integral symmetry is turned on.
 Nuclear repulsion after empirical dispersion term =      305.5495168559 Hartrees.
 One-electron integrals computed using PRISM.
 NBasis=   232 RedAO= T EigKep=  2.80D-04  NBF=   232
 NBsUse=   232 1.00D-06 EigRej= -1.00D+00 NBFU=   232
 Initial guess from the checkpoint file:  "sim004_type3_coord-5_3-2-0_10C_b1_id81790_step1500.chk"
 B after Tr=    -0.000000    0.000000   -0.000000
         Rot=    0.999764   -0.004213   -0.003612   -0.020992 Ang=  -2.49 deg.
 ExpMin= 6.16D-03 ExpMax= 3.17D+04 ExpMxC= 1.08D+03 IAcc=3 IRadAn=         5 AccDes= 0.00D+00
 Harris functional with IExCor=  402 and IRadAn=       5 diagonalized for initial guess.
 HarFok:  IExCor=  402 AccDes= 0.00D+00 IRadAn=         5 IDoV= 1 UseB2=F ITyADJ=14
 ICtDFT=  3500011 ScaDFX=  1.000000  1.000000  1.000000  1.000000
 FoFCou: FMM=F IPFlag=           0 FMFlag=      100000 FMFlg1=           0
         NFxFlg=           0 DoJE=T BraDBF=F KetDBF=T FulRan=T
         wScrn=  0.000000 ICntrl=       500 IOpCl=  0 I1Cent=   200000004 NGrid=           0
         NMat0=    1 NMatS0=      1 NMatT0=    0 NMatD0=    1 NMtDS0=    0 NMtDT0=    0
 Petite list used in FoFCou.
 Requested convergence on RMS density matrix=1.00D-08 within 500 cycles.
 Requested convergence on MAX density matrix=1.00D-06.
 Requested convergence on             energy=1.00D-06.
 No special actions if energy rises.
 SCF Done:  E(RB3LYP) =  -544.449136386     A.U. after    9 cycles
            NFock=  9  Conv=0.21D-08     -V/T= 2.0056
 DoSCS=F DFT=T ScalE2(SS,OS)=  1.000000  1.000000
 Range of M.O.s used for correlation:     1   232
 NBasis=   232 NAE=    30 NBE=    30 NFC=     0 NFV=     0
 NROrb=    232 NOA=    30 NOB=    30 NVA=   202 NVB=   202

 **** Warning!!: The largest alpha MO coefficient is  0.13826320D+02

 Symmetrizing basis deriv contribution to polar:
 IMax=3 JMax=2 DiffMx= 0.00D+00
 G2DrvN: will do    17 centers at a time, making    1 passes.
 Calling FoFCou, ICntrl=  3107 FMM=F I1Cent=   0 AccDes= 1.00D-11.
 End of G2Drv F.D. properties file   721 does not exist.
 End of G2Drv F.D. properties file   722 does not exist.
 End of G2Drv F.D. properties file   788 does not exist.
          IDoAtm=1111111111111111
          Differentiating once with respect to electric field.
                with respect to dipole field.
          Differentiating once with respect to nuclear coordinates.
 Keep R1 ints in memory in canonical form, NReq=408195318.
          There are    51 degrees of freedom in the 1st order CPHF.  IDoFFX=6 NUNeed=     3.
     48 vectors produced by pass  0 Test12= 1.19D-14 1.96D-09 XBig12= 2.24D+01 1.17D+00.
 AX will form    48 AO Fock derivatives at one time.
     48 vectors produced by pass  1 Test12= 1.19D-14 1.96D-09 XBig12= 2.24D+00 2.68D-01.
     48 vectors produced by pass  2 Test12= 1.19D-14 1.96D-09 XBig12= 2.69D-02 2.14D-02.
     48 vectors produced by pass  3 Test12= 1.19D-14 1.96D-09 XBig12= 6.16D-05 8.82D-04.
     48 vectors produced by pass  4 Test12= 1.19D-14 1.96D-09 XBig12= 7.71D-08 2.48D-05.
     20 vectors produced by pass  5 Test12= 1.19D-14 1.96D-09 XBig12= 5.77D-11 7.60D-07.
      3 vectors produced by pass  6 Test12= 1.19D-14 1.96D-09 XBig12= 4.73D-14 2.58D-08.
 InvSVY:  IOpt=1 It=  1 EMax= 3.55D-15
 Solved reduced A of dimension   263 with    51 vectors.
 Isotropic polarizability for W=    0.000000       46.45 Bohr**3.
 End of Minotr F.D. properties file   721 does not exist.
 End of Minotr F.D. properties file   722 does not exist.
 End of Minotr F.D. properties file   788 does not exist.
 Calling FoFJK, ICntrl=    100127 FMM=F ISym2X=0 I1Cent= 0 IOpClX= 0 NMat=1 NMatS=1 NMatT=0.
 ***** Axes restored to original set *****
 -------------------------------------------------------------------
 Center     Atomic                   Forces (Hartrees/Bohr)
 Number     Number              X              Y              Z
 -------------------------------------------------------------------
      1        8           0.001589186    0.002758442    0.003074240
      2        1          -0.004591816   -0.004409870   -0.000220918
      3        1           0.002512916   -0.001135462   -0.002530257
      4        8           0.002169878   -0.000819540   -0.003665698
      5        1           0.005753870    0.002224677    0.001006313
      6        1           0.001115526   -0.004525126    0.004114262
      7        8           0.004469340   -0.001618343   -0.000776744
      8        1          -0.001517608    0.002011303   -0.002652818
      9        1          -0.004196757    0.001452123    0.003095357
     10        8          -0.000650891   -0.002488103   -0.005760981
     11        1          -0.005880908    0.000018974    0.004184709
     12        1           0.002842820    0.002025795    0.002691162
     13        8          -0.003546527   -0.000854011    0.002944863
     14        1          -0.000511941    0.000906387   -0.002293448
     15        1           0.002636630   -0.000355256    0.001141831
     16       11          -0.002193719    0.004808009   -0.004351872
 -------------------------------------------------------------------
 Cartesian Forces:  Max     0.005880908 RMS     0.002998242

 GradGradGradGradGradGradGradGradGradGradGradGradGradGradGradGradGradGrad
 Berny optimization.
 Search for a local minimum.
 Step number   3 out of a maximum of  500
 All quantities printed in internal units (Hartrees-Bohrs-Radians)
 Second derivative matrix not updated -- analytic derivatives used.
 ITU=  0  1  0
 Linear search step of   0.273 exceeds DXMaxT=   0.168 but not scaled.
 Quartic linear search produced a step of  1.45046.
 B after Tr=     0.000000   -0.000000   -0.000000
         Rot=    1.000000   -0.000000    0.000000   -0.000000 Ang=   0.00 deg.
 Variable       Old X    -DE/DX   Delta X   Delta X   Delta X     New X
                                 (Linear)    (Quad)   (Total)
    X1       -0.63255   0.00159   0.01201   0.00000   0.01201  -0.62054
    Y1       -3.92194   0.00276  -0.00945   0.00000  -0.00945  -3.93139
    Z1       -1.70760   0.00307   0.09043   0.00000   0.09043  -1.61717
    X2       -1.60160  -0.00459   0.01597   0.00000   0.01597  -1.58563
    Y2       -5.32338  -0.00441  -0.05190   0.00000  -0.05190  -5.37528
    Z2       -1.08309  -0.00022   0.02691   0.00000   0.02691  -1.05617
    X3        0.95362   0.00251  -0.00929   0.00000  -0.00929   0.94433
    Y3       -4.64860  -0.00114   0.00038   0.00000   0.00038  -4.64822
    Z3       -2.22847  -0.00253  -0.05151   0.00000  -0.05151  -2.27997
    X4        3.80943   0.00217   0.04579   0.00000   0.04579   3.85523
    Y4       -1.41931  -0.00082  -0.01398   0.00000  -0.01398  -1.43330
    Z4        1.06877  -0.00367   0.00588   0.00000   0.00588   1.07465
    X5        4.91190   0.00575  -0.00078   0.00000  -0.00078   4.91113
    Y5       -0.23247   0.00222   0.01973   0.00000   0.01973  -0.21274
    Z5        1.88982   0.00101   0.03857   0.00000   0.03857   1.92839
    X6        3.44363   0.00112   0.04889   0.00000   0.04889   3.49252
    Y6       -2.66164  -0.00453  -0.03541   0.00000  -0.03541  -2.69706
    Z6        2.34144   0.00411  -0.00407   0.00000  -0.00407   2.33737
    X7       -3.62382   0.00447   0.04290   0.00000   0.04290  -3.58092
    Y7        2.26110  -0.00162   0.06413   0.00000   0.06413   2.32524
    Z7       -0.93561  -0.00078   0.01095   0.00000   0.01095  -0.92466
    X8       -3.48582  -0.00152  -0.04732   0.00000  -0.04732  -3.53314
    Y8        3.33160   0.00201   0.00386   0.00000   0.00386   3.33546
    Z8       -2.39998  -0.00265  -0.05955   0.00000  -0.05955  -2.45952
    X9       -4.98620  -0.00420   0.02846   0.00000   0.02846  -4.95774
    Y9        2.97778   0.00145   0.05018   0.00000   0.05018   3.02796
    Z9        0.02557   0.00310   0.01210   0.00000   0.01210   0.03767
   X10       -0.14184  -0.00065  -0.01683   0.00000  -0.01683  -0.15866
   Y10        0.84247  -0.00249  -0.06525   0.00000  -0.06525   0.77722
   Z10        4.48177  -0.00576  -0.01320   0.00000  -0.01320   4.46857
   X11       -1.78069  -0.00588  -0.03165   0.00000  -0.03165  -1.81233
   Y11        0.31142   0.00002  -0.01765   0.00000  -0.01765   0.29376
   Z11        5.05280   0.00418   0.01100   0.00000   0.01100   5.06380
   X12        0.83128   0.00284  -0.02213   0.00000  -0.02213   0.80914
   Y12        1.01952   0.00203   0.00683   0.00000   0.00683   1.02635
   Z12        6.00631   0.00269  -0.00629   0.00000  -0.00629   6.00002
   X13        1.78346  -0.00355  -0.08918   0.00000  -0.08918   1.69428
   Y13        1.51902  -0.00085  -0.08097   0.00000  -0.08097   1.43805
   Z13       -4.21636   0.00294   0.01464   0.00000   0.01464  -4.20172
   X14        0.60728  -0.00051  -0.00261   0.00000  -0.00261   0.60468
   Y14        2.07026   0.00091   0.03899   0.00000   0.03899   2.10925
   Z14       -5.49280  -0.00229  -0.04197   0.00000  -0.04197  -5.53477
   X15        3.22538   0.00264  -0.00307   0.00000  -0.00307   3.22231
   Y15        0.94050  -0.00036   0.03385   0.00000   0.03385   0.97435
   Z15       -5.16855   0.00114   0.03823   0.00000   0.03823  -5.13032
   X16        0.03029  -0.00219   0.02882   0.00000   0.02882   0.05912
   Y16        0.05955   0.00481   0.05667   0.00000   0.05667   0.11621
   Z16       -0.07581  -0.00435  -0.07214   0.00000  -0.07214  -0.14796
         Item               Value     Threshold  Converged?
 Maximum Force            0.005881     0.000450     NO 
 RMS     Force            0.002998     0.000300     NO 
 Maximum Displacement     0.090431     0.001800     NO 
 RMS     Displacement     0.039433     0.001200     NO 
 Predicted change in Energy=-1.933060D-03
 GradGradGradGradGradGradGradGradGradGradGradGradGradGradGradGradGradGrad

                          Input orientation:                          
 ---------------------------------------------------------------------
 Center     Atomic      Atomic             Coordinates (Angstroms)
 Number     Number       Type             X           Y           Z
 ---------------------------------------------------------------------
      1          8           0       -0.328374   -2.080401   -0.855769
      2          1           0       -0.839078   -2.844475   -0.558903
      3          1           0        0.499716   -2.459732   -1.206510
      4          8           0        2.040098   -0.758467    0.568682
      5          1           0        2.598856   -0.112580    1.020460
      6          1           0        1.848162   -1.427221    1.236884
      7          8           0       -1.894939    1.230462   -0.489308
      8          1           0       -1.869659    1.765051   -1.301523
      9          1           0       -2.623525    1.602329    0.019936
     10          8           0       -0.083961    0.411288    2.364668
     11          1           0       -0.959045    0.155454    2.679648
     12          1           0        0.428180    0.543123    3.175074
     13          8           0        0.896573    0.760981   -2.223452
     14          1           0        0.319981    1.116168   -2.928874
     15          1           0        1.705173    0.515602   -2.714849
     16         11           0        0.031283    0.061498   -0.078295
 ---------------------------------------------------------------------
                    Distance matrix (angstroms):
                    1          2          3          4          5
     1  O    0.000000
     2  H    0.965793   0.000000
     3  H    0.976035   1.536161   0.000000
     4  O    3.063695   3.729950   2.901446   0.000000
     5  H    3.995151   4.666586   3.856801   0.966170   0.000000
     6  H    3.089198   3.529124   2.975661   0.964657   1.529268
     7  O    3.681065   4.210083   4.457161   4.534281   4.927206
     8  H    4.166745   4.781351   4.844766   5.015178   5.374451
     9  H    4.426859   4.826321   5.268695   5.255841   5.587059
    10  O    4.079150   4.440435   4.619172   3.017535   3.046119
    11  H    4.230362   4.416127   4.906058   3.779720   3.934896
    12  H    4.868567   5.198495   5.312301   3.329519   3.127961
    13  O    3.382973   4.333881   3.400685   3.378223   3.766144
    14  H    3.864736   4.758873   3.973148   4.325038   4.722322
    15  H    3.785594   4.734071   3.546946   3.537937   3.891762
    16  Na   2.306848   3.071350   2.801589   2.264125   2.798213
                    6          7          8          9         10
     6  H    0.000000
     7  O    4.904470   0.000000
     8  H    5.518722   0.972686   0.000000
     9  H    5.536707   0.963562   1.530048   0.000000
    10  O    2.895706   3.477911   4.296783   3.655917   0.000000
    11  H    3.530841   3.474741   4.389732   3.455143   0.964591
    12  H    3.107279   4.392837   5.178136   4.515498   0.967692
    13  O    4.203293   3.319670   3.083853   4.258139   4.704740
    14  H    5.114460   3.297031   2.804255   4.194766   5.355521
    15  H    4.405814   4.292419   4.042033   5.234276   5.386406
    16  Na   2.692031   2.290358   2.830540   3.071126   2.470567
                   11         12         13         14         15
    11  H    0.000000
    12  H    1.523197   0.000000
    13  O    5.277345   5.423186   0.000000
    14  H    5.832186   6.131743   0.977873   0.000000
    15  H    6.027301   6.026828   0.977505   1.524875   0.000000
    16  Na   2.931864   3.312688   2.416548   3.053109   3.155873
                   16
    16  Na   0.000000
 Stoichiometry    H10NaO5(1+)
 Framework group  C1[X(H10NaO5)]
 Deg. of freedom    42
 Full point group                 C1      NOp   1
 Largest Abelian subgroup         C1      NOp   1
 Largest concise Abelian subgroup C1      NOp   1
                         Standard orientation:                         
 ---------------------------------------------------------------------
 Center     Atomic      Atomic             Coordinates (Angstroms)
 Number     Number       Type             X           Y           Z
 ---------------------------------------------------------------------
      1          8           0       -0.555196   -1.028718    1.856214
      2          1           0       -0.246292   -1.041174    2.771189
      3          1           0       -0.732084   -1.964827    1.643954
      4          8           0        1.031024   -1.785196   -0.653343
      5          1           0        1.478446   -1.739135   -1.508432
      6          1           0        1.739747   -1.915384   -0.011996
      7          8           0       -0.825905    2.257990    0.220822
      8          1           0       -1.684247    2.408132   -0.211408
      9          1           0       -0.477899    3.142882    0.376735
     10          8           0        2.340905    0.905687   -0.267496
     11          1           0        2.552622    1.486182    0.473204
     12          1           0        3.195749    0.744273   -0.691307
     13          8           0       -2.061804   -0.511941   -1.128343
     14          1           0       -2.881955    0.014483   -1.047939
     15          1           0       -2.395844   -1.378534   -1.433218
     16         11           0        0.001778    0.140049   -0.053056
 ---------------------------------------------------------------------
 Rotational constants (GHZ):           1.6815699           1.5334820           1.1810477
 Standard basis: Aug-CC-pVDZ (5D, 7F)
 There are   244 symmetry adapted cartesian basis functions of A   symmetry.
 There are   232 symmetry adapted basis functions of A   symmetry.
   232 basis functions,   406 primitive gaussians,   244 cartesian basis functions
    30 alpha electrons       30 beta electrons
       nuclear repulsion energy       305.6687683740 Hartrees.
 NAtoms=   16 NActive=   16 NUniq=   16 SFac= 1.00D+00 NAtFMM=   60 NAOKFM=F Big=F
 Integral buffers will be    131072 words long.
 Raffenetti 2 integral format.
 Two-electron integral symmetry is turned on.
 Nuclear repulsion after empirical dispersion term =      305.6604829264 Hartrees.
 One-electron integrals computed using PRISM.
 NBasis=   232 RedAO= T EigKep=  2.66D-04  NBF=   232
 NBsUse=   232 1.00D-06 EigRej= -1.00D+00 NBFU=   232
 Initial guess from the checkpoint file:  "sim004_type3_coord-5_3-2-0_10C_b1_id81790_step1500.chk"
 B after Tr=    -0.000000   -0.000000    0.000000
         Rot=    0.999352   -0.005168   -0.005490   -0.035191 Ang=  -4.12 deg.
 ExpMin= 6.16D-03 ExpMax= 3.17D+04 ExpMxC= 1.08D+03 IAcc=3 IRadAn=         5 AccDes= 0.00D+00
 Harris functional with IExCor=  402 and IRadAn=       5 diagonalized for initial guess.
 HarFok:  IExCor=  402 AccDes= 0.00D+00 IRadAn=         5 IDoV= 1 UseB2=F ITyADJ=14
 ICtDFT=  3500011 ScaDFX=  1.000000  1.000000  1.000000  1.000000
 FoFCou: FMM=F IPFlag=           0 FMFlag=      100000 FMFlg1=           0
         NFxFlg=           0 DoJE=T BraDBF=F KetDBF=T FulRan=T
         wScrn=  0.000000 ICntrl=       500 IOpCl=  0 I1Cent=   200000004 NGrid=           0
         NMat0=    1 NMatS0=      1 NMatT0=    0 NMatD0=    1 NMtDS0=    0 NMtDT0=    0
 Petite list used in FoFCou.
 Requested convergence on RMS density matrix=1.00D-08 within 500 cycles.
 Requested convergence on MAX density matrix=1.00D-06.
 Requested convergence on             energy=1.00D-06.
 No special actions if energy rises.
 SCF Done:  E(RB3LYP) =  -544.450795302     A.U. after    9 cycles
            NFock=  9  Conv=0.34D-08     -V/T= 2.0058
 DoSCS=F DFT=T ScalE2(SS,OS)=  1.000000  1.000000
 Range of M.O.s used for correlation:     1   232
 NBasis=   232 NAE=    30 NBE=    30 NFC=     0 NFV=     0
 NROrb=    232 NOA=    30 NOB=    30 NVA=   202 NVB=   202

 **** Warning!!: The largest alpha MO coefficient is  0.16338227D+02

 Symmetrizing basis deriv contribution to polar:
 IMax=3 JMax=2 DiffMx= 0.00D+00
 G2DrvN: will do    17 centers at a time, making    1 passes.
 Calling FoFCou, ICntrl=  3107 FMM=F I1Cent=   0 AccDes= 1.00D-11.
 End of G2Drv F.D. properties file   721 does not exist.
 End of G2Drv F.D. properties file   722 does not exist.
 End of G2Drv F.D. properties file   788 does not exist.
          IDoAtm=1111111111111111
          Differentiating once with respect to electric field.
                with respect to dipole field.
          Differentiating once with respect to nuclear coordinates.
 Keep R1 ints in memory in canonical form, NReq=408195318.
          There are    51 degrees of freedom in the 1st order CPHF.  IDoFFX=6 NUNeed=     3.
     48 vectors produced by pass  0 Test12= 1.19D-14 1.96D-09 XBig12= 2.28D+01 9.47D-01.
 AX will form    48 AO Fock derivatives at one time.
     48 vectors produced by pass  1 Test12= 1.19D-14 1.96D-09 XBig12= 2.33D+00 2.32D-01.
     48 vectors produced by pass  2 Test12= 1.19D-14 1.96D-09 XBig12= 2.77D-02 2.15D-02.
     48 vectors produced by pass  3 Test12= 1.19D-14 1.96D-09 XBig12= 6.67D-05 9.59D-04.
     48 vectors produced by pass  4 Test12= 1.19D-14 1.96D-09 XBig12= 8.60D-08 2.89D-05.
     20 vectors produced by pass  5 Test12= 1.19D-14 1.96D-09 XBig12= 6.45D-11 7.04D-07.
      3 vectors produced by pass  6 Test12= 1.19D-14 1.96D-09 XBig12= 5.24D-14 2.48D-08.
 InvSVY:  IOpt=1 It=  1 EMax= 1.78D-15
 Solved reduced A of dimension   263 with    51 vectors.
 Isotropic polarizability for W=    0.000000       46.90 Bohr**3.
 End of Minotr F.D. properties file   721 does not exist.
 End of Minotr F.D. properties file   722 does not exist.
 End of Minotr F.D. properties file   788 does not exist.
 Calling FoFJK, ICntrl=    100127 FMM=F ISym2X=0 I1Cent= 0 IOpClX= 0 NMat=1 NMatS=1 NMatT=0.
 ***** Axes restored to original set *****
 -------------------------------------------------------------------
 Center     Atomic                   Forces (Hartrees/Bohr)
 Number     Number              X              Y              Z
 -------------------------------------------------------------------
      1        8           0.008791266   -0.006380627   -0.000263114
      2        1          -0.001404475    0.000252503   -0.001549895
      3        1          -0.007938577    0.003623249    0.002060773
      4        8           0.003217609    0.001275008    0.000101895
      5        1           0.002706705   -0.001645568   -0.000742797
      6        1           0.001359487   -0.001517841    0.001340899
      7        8           0.001861732    0.005189649   -0.007566237
      8        1          -0.001984766   -0.003547604    0.005689048
      9        1          -0.001615995    0.000323323    0.001420998
     10        8          -0.001007037   -0.002326810    0.000796816
     11        1          -0.002029511    0.000806339    0.002244727
     12        1          -0.000230657    0.001205405   -0.002431787
     13        8           0.000332216    0.001765780   -0.015911469
     14        1           0.005871662   -0.003683947    0.008294270
     15        1          -0.006777726    0.002063933    0.008479586
     16       11          -0.001151933    0.002597209   -0.001963712
 -------------------------------------------------------------------
 Cartesian Forces:  Max     0.015911469 RMS     0.004340375

 GradGradGradGradGradGradGradGradGradGradGradGradGradGradGradGradGradGrad
 Berny optimization.
 Search for a local minimum.
 Step number   4 out of a maximum of  500
 All quantities printed in internal units (Hartrees-Bohrs-Radians)
 Second derivative matrix not updated -- analytic derivatives used.
 ITU=  0  0  1  0
     Eigenvalues ---   -0.00157  -0.00105  -0.00041  -0.00007   0.00005
     Eigenvalues ---    0.00035   0.00053   0.00081   0.00095   0.00122
[...]

 Dipole orientation:
     8          0.49989687         -4.27335855         -0.04007304
     1          0.04909465         -5.85042745          0.75667458
     1          0.55962665         -4.60669163         -1.83916334
     8          4.17332543         -0.20251852          0.04333991
     1          5.71261091          0.64469371          0.53270088
     1          4.36367607         -1.94651568          0.56291772
     8         -2.93090491          3.57902672         -0.71694657
     1         -3.56371824          4.69703528         -2.01027805
     1         -3.67464298          4.14766650          0.85049927
     8         -1.86542824          1.05350790          4.12116798
     1         -3.15579673          0.10957978          5.00398517
     1         -0.87357511          1.82778132          5.44482018
     8          0.97592366         -1.06621346         -4.33530740
     1          0.46740457         -0.91105166         -6.08021063
     1          2.76172498         -0.67260174         -4.29211039
    11         -0.31340899          0.17854605         -0.10437633

 Electric dipole moment (dipole orientation):
 (Debye = 10**-18 statcoulomb cm , SI units = C m)
                  (au)            (Debye)         (10**-30 SI)
   Tot        0.346933D+00      0.881815D+00      0.294142D+01
   x          0.000000D+00      0.000000D+00      0.000000D+00
   y          0.000000D+00      0.000000D+00      0.000000D+00
   z          0.346933D+00      0.881815D+00      0.294142D+01

 Dipole polarizability, Alpha (dipole orientation).
 (esu units = cm**3 , SI units = C**2 m**2 J**-1)
 Alpha(0;0):
               (au)            (10**-24 esu)      (10**-40 SI)
   iso        0.473571D+02      0.701760D+01      0.780813D+01
   aniso      0.325780D+01      0.482756D+00      0.537139D+00
   xx         0.461583D+02      0.683995D+01      0.761047D+01
   yx         0.198525D+00      0.294184D-01      0.327324D-01
   yy         0.468978D+02      0.694954D+01      0.773241D+01
   zx         0.380972D+00      0.564543D-01      0.628139D-01
   zy        -0.107453D+01     -0.159229D+00     -0.177166D+00
   zz         0.490151D+02      0.726329D+01      0.808150D+01

 ----------------------------------------------------------------------

 Test job not archived.
 1\1\GINC-N682\Freq\RB3LYP\Aug-CC-pVDZ\H10Na1O5(1+)\HNR2\18-Jul-2022\0\
 \#N Geom=AllCheck Guess=TCheck SCRF=Check Test GenChk RB3LYP/Aug-CC-pV
 DZ Freq\\MD frame sim004_type3_coord-5_3-2-0_10C_b1_id81790_step1500\\
 1,1\O,0.2796636859,-2.2213799669,-0.4140702438\H,0.0179286995,-3.11718
 98927,-0.1687879467\H,0.3778623113,-2.2217884928,-1.3778366633\O,2.202
 2420742,-0.1235179621,0.1550533775\H,2.9941816894,0.2650410274,0.54672
 7139\H,2.2896361296,-1.0816431038,0.2637535656\O,-1.5331126024,1.94112
 70664,-0.1343054511\H,-1.8238001293,2.6495162732,-0.7210327138\H,-1.98
 47540036,2.0885677055,0.7069578167\O,-1.138462995,0.1575881575,2.17263
 13118\H,-1.8486691213,-0.4142560264,2.4929646774\H,-0.6656726027,0.429
 692665,2.9703876023\O,0.6767287892,-0.1406025623,-2.3174168023\H,0.471
 333417,0.1098526573,-3.226723669\H,1.6165812023,0.0540698108,-2.192026
 8682\Na,-0.1622465441,0.1040026438,-0.048405132\\Version=ES64L-G16RevB
 .01\State=1-A\HF=-544.4645767\RMSD=3.521e-09\RMSF=1.655e-06\ZeroPoint=
 0.1205878\Thermal=0.1376225\Dipole=-0.0238875,-0.0631288,0.3403034\Dip
 oleDeriv=-0.6398691,0.0043485,0.006834,0.0078844,-0.5824554,0.0530336,
 0.0181654,0.0817642,-0.5310693,0.324999,-0.0266004,-0.0079218,-0.02524
 35,0.2523988,-0.0209961,-0.0096594,-0.0250454,0.2922024,0.2951525,0.01
 87255,-0.0074425,0.0187013,0.3658863,-0.0940313,-0.016512,-0.1061989,0
 .2929719,-0.5796843,-0.0464571,0.0420978,-0.0675798,-0.5244533,-0.0494
 717,0.0431426,-0.035124,-0.6288155,0.2670091,0.0131829,-0.0441736,0.01
 7177,0.3007694,0.0137095,-0.0456162,0.0116316,0.3060458,0.3381959,0.07
 51697,0.007141,0.0870346,0.296048,0.0410121,0.0044499,0.029757,0.30063
 51,-0.5681829,-0.0308322,-0.0291141,-0.0309066,-0.5686754,0.0260404,-0
 .0313318,0.0293893,-0.5762277,0.3032892,0.0436724,0.0042321,0.0451766,
 0.2708039,0.010718,0.0023371,0.0127326,0.3084065,0.275724,0.0197718,0.
 0417719,0.0195826,0.31337,-0.0614489,0.0440914,-0.0639799,0.3149836,-0
 .5608357,0.0724187,0.0175431,0.0704243,-0.5854456,-0.0182864,0.0180414
 ,-0.0208065,-0.5019043,0.3029382,-0.0280095,0.0145424,-0.0242065,0.307
 6356,0.0269923,0.012098,0.0256619,0.2524593,0.3123387,-0.0166557,-0.00
 83886,-0.0189994,0.3132725,0.0133893,-0.0062889,0.0171719,0.238192,-0.
 5033294,0.0560765,-0.0493552,0.0455239,-0.6292059,-0.0243684,-0.025494
 3,-0.0224273,-0.5969756,0.2949016,-0.0261069,0.0230427,-0.0241765,0.31
 32507,0.0407723,0.0182799,0.0357996,0.2641657,0.2607375,-0.0250259,0.0
 676118,-0.0186686,0.2882439,0.0092245,0.0546715,0.0040664,0.37676,0.87
 66157,-0.1036782,-0.078421,-0.1017237,0.8685563,0.0337106,-0.0803747,0
 .0256078,0.8881701\Polar=46.1160854,0.2284618,47.3508203,0.2332762,-1.
 3723153,48.6043486\Quadrupole=-1.5245095,-1.6808112,3.2053207,-3.66205
 22,-4.0766494,-0.0612577\PG=C01 [X(H10Na1O5)]\NImag=0\\0.05791096,0.14
 080288,0.52144105,-0.08547228,-0.09805934,0.57800658,-0.04192868,-0.12
 620931,0.04304487,0.04299040,-0.13092688,-0.45406671,0.13124400,0.1313
 5590,0.45568624,0.02893988,0.07853059,-0.07515535,-0.04161308,-0.12418
 202,0.08500759,-0.01306422,-0.01183691,0.04084267,-0.00161432,0.000503
 77,0.01296456,0.01638075,-0.00636230,-0.04608965,-0.03511198,-0.004970
 97,-0.00141467,0.04493987,0.01032819,0.04582885,0.05514988,0.01505604,
 -0.49671607,-0.00113918,-0.00756791,-0.00960584,-0.05382366,-0.0047412
 3,0.50949418,-0.00299416,-0.00488907,-0.00095583,-0.00068808,0.0000292
 0,-0.00083895,-0.00028154,-0.00007912,0.00050576,0.42277054,-0.0034518
 2,-0.00264803,-0.00080420,-0.00025115,0.00027784,-0.00071493,0.0003242
 7,-0.00033154,0.00085655,0.10902224,0.61920687,-0.00205098,-0.00227543
 ,0.00167964,-0.00036248,0.00001818,-0.00056933,0.00100680,0.00101578,-
 0.00014892,0.20503138,0.01917336,0.11700264,0.00048578,-0.00018383,0.0
 0022004,-0.00005412,-0.00007961,-0.00015613,-0.00011821,-0.00001477,-0
 .00010653,-0.35894628,-0.17621542,-0.17390469,0.35707878,-0.00045744,-
 0.00049731,-0.00008586,-0.00028770,0.00007492,-0.00014266,-0.00010229,
 -0.00014163,0.00002660,-0.12804783,-0.12020044,-0.06060198,0.16869500,
 0.13593294,0.00042291,0.00018901,0.00036650,-0.00009473,0.00005277,0.0
 0010934,0.00004984,0.00012373,0.00008731,-0.17770210,-0.08635259,-0.09
 138720,0.17418288,0.08070508,0.09028442,0.00121404,0.00125309,0.000732
 11,0.00052489,-0.00023638,0.00077280,0.00020497,0.00046028,-0.00087763
 ,-0.04497763,0.06994719,-0.02456857,0.00186984,-0.04012417,0.00371980,
 0.04261844,0.00164309,-0.00211031,0.00078768,-0.00070812,-0.00053406,-
 0.00001664,-0.00013637,0.00071394,-0.00089093,0.02383653,-0.49248262,0
 .04338876,0.00832239,-0.01602244,0.00553756,-0.03457873,0.51056831,0.0
 0188710,0.00103293,-0.00246772,0.00061809,-0.00017371,0.00069460,-0.00
 195298,-0.00070368,-0.00069161,-0.02187563,0.06883297,-0.02083373,0.00
 059078,-0.02028682,0.00123657,0.02053125,-0.04994589,0.02085418,0.0004
 0679,0.00036666,-0.00006494,-0.00015638,-0.00002246,0.00003646,-0.0001
 3948,-0.00021025,0.00004368,-0.00030142,0.00070612,0.00001335,0.000190
 95,-0.00013676,0.00002809,-0.00020078,-0.00024563,-0.00001618,0.202560
 41,0.00057030,-0.00047616,-0.00009775,-0.00007883,0.00013832,-0.000047
 73,-0.00021934,0.00002802,0.00014363,0.00060108,0.00032481,-0.00004439
 ,-0.00002692,-0.00023033,-0.00001476,-0.00025594,-0.00001578,0.0000270
 3,-0.19364932,0.35472429,-0.00004320,-0.00016333,0.00063684,0.00005194
 ,-0.00002895,-0.00011997,-0.00007249,0.00046054,-0.00028933,-0.0002910
 4,0.00011152,0.00072422,0.00014051,-0.00003169,-0.00018297,0.00005802,
 -0.00007068,-0.00015159,-0.12396785,-0.16241218,0.61127283,-0.00012483
 ,-0.00004905,0.00005593,0.00003292,0.00001153,0.00001030,0.00006500,0.
 00011067,-0.00006637,-0.00007163,-0.00018483,0.00011034,-0.00002869,0.
 00009110,-0.00004183,0.00004754,0.00005445,-0.00000651,-0.06728696,0.1
 3581322,-0.09165385,0.06117327,-0.00009006,0.00007389,-0.00007045,0.00
 002517,-0.00002905,0.00001143,0.00005685,-0.00008417,0.00003762,-0.000
 06981,-0.00000554,-0.00004500,0.00002727,0.00003209,-0.00000612,0.0000
 1467,0.00000300,0.00002748,0.11905653,-0.29142948,0.23714951,-0.120299
 70,0.28769457,0.00006470,-0.00006342,-0.00017147,-0.00001056,0.0000096
 0,0.00001305,-0.00001088,-0.00010097,0.00011645,0.00015366,-0.00008427
 ,-0.00017618,-0.00004359,0.00001407,0.00004622,-0.00000208,0.00003583,
 0.00004205,-0.06077564,0.19576707,-0.21329019,0.07608779,-0.22867684,0
 .23533114,-0.00008209,-0.00005263,-0.00009229,0.00003552,0.00001554,0.
 00001514,0.00003435,-0.00002422,0.00002925,0.00011069,-0.00019697,-0.0
 0024641,-0.00009151,0.00006832,0.00006836,0.00003250,0.00008045,0.0000
 4549,-0.12691519,0.04809841,0.21611544,0.00527881,0.00115093,-0.015292
 41,0.12308880,-0.00024570,-0.00001543,0.00029560,0.00008580,-0.0000778
 6,-0.00007163,0.00004447,0.00014750,-0.00011200,-0.00018241,-0.0001378
 8,0.00020399,0.00003880,0.00006079,-0.00002756,0.00013580,0.00002694,-
 0.00007489,0.06434639,-0.04677031,-0.07833882,-0.01595387,0.00357735,0
 .03254187,-0.04894468,0.04270387,-0.00002786,0.00014928,-0.00024768,-0
 .00001192,0.00001192,0.00009254,0.00005002,-0.00014740,0.00006940,0.00
 000837,0.00004814,-0.00027512,-0.00003739,-0.00000480,0.00007779,-0.00
 006731,0.00001728,0.00008233,0.18626514,-0.03835248,-0.39133289,0.0161
 6937,-0.00957485,-0.02227270,-0.20339625,0.04932949,0.41393943,0.00068
 388,0.00012067,0.00052446,-0.00029127,-0.00003120,-0.00006892,-0.00011
 213,0.00013779,-0.00005331,-0.00104692,0.00012273,0.00151124,0.0004034
 1,0.00013959,-0.00022639,0.00025469,-0.00039218,-0.00057488,0.00132138
 ,0.00117187,-0.00051746,0.00055782,0.00000546,0.00015513,-0.00172158,-
 0.00201699,0.00073976,0.42493944,0.00077282,0.00012922,-0.00142893,-0.
 00026942,0.00038658,0.00052489,-0.00001979,-0.00050403,0.00025744,0.00
 021263,0.00084639,0.00004002,0.00006566,-0.00022000,-0.00009984,-0.000
 59387,-0.00028522,0.00024357,0.00136821,-0.00165513,0.00327454,-0.0000
 1978,0.00054285,0.00018880,-0.00177603,0.00050201,-0.00195981,0.304480
 34,0.23996931,0.00071091,-0.00062021,-0.00045266,-0.00012930,0.0002554
 0,-0.00015277,-0.00006711,-0.00008609,0.00013325,0.00058857,0.00014216
 ,0.00012530,-0.00001663,-0.00010194,-0.00015533,-0.00026528,-0.0000039
 5,-0.00008711,-0.00093847,0.00394771,-0.00295556,0.00017927,0.00014812
 ,-0.00011492,0.00037490,-0.00151455,-0.00106541,0.07042757,0.00667162,
 0.48390946,0.00006549,-0.00004617,-0.00051431,0.00001901,0.00013890,0.
 00020984,0.00005525,-0.00012352,0.00006837,0.00013543,0.00011910,-0.00
 017953,-0.00005365,-0.00004008,0.00004258,-0.00013162,-0.00002246,0.00
 013232,-0.00054465,0.00012752,-0.00047300,0.00001340,0.00005027,-0.000
 15334,0.00081785,0.00015592,0.00026622,-0.28037392,-0.21841133,0.09298
 078,0.29695678,-0.00041749,-0.00024401,0.00046250,0.00027085,-0.000143
 49,-0.00032709,0.00000484,0.00015021,-0.00012048,0.00015113,-0.0002111
 0,-0.00019482,-0.00004283,0.00002560,0.00003449,0.00009172,0.00017370,
 0.00003654,0.00030339,0.00005045,-0.00022484,0.00012923,-0.00002877,0.
 00017163,-0.00069954,-0.00066203,0.00051508,-0.22388332,-0.18160929,0.
 07961782,0.23378059,0.18919413,-0.00060856,0.00003590,0.00030279,0.000
 24327,-0.00021232,-0.00006530,0.00005545,0.00008393,-0.00010228,0.0000
 4011,-0.00013780,-0.00011655,-0.00000007,-0.00000220,0.00000520,0.0001
 1090,0.00010059,0.00005928,-0.00052697,-0.00011887,-0.00046374,-0.0001
 4993,0.00004775,-0.00008222,0.00062296,0.00045210,0.00013241,0.1368238
 6,0.11248264,-0.10216719,-0.10602829,-0.08895208,0.09340107,-0.0004139
 2,0.00009606,0.00004426,0.00012237,-0.00004100,0.00000254,0.00005189,0
 .00003119,-0.00000218,0.00016344,-0.00026032,-0.00095857,-0.00029081,0
 .00001953,0.00034243,0.00005607,0.00022300,0.00028192,-0.00022858,-0.0
 0025573,0.00037913,0.00005104,0.00005357,-0.00005227,-0.00005631,0.000
 15170,-0.00059936,-0.14012095,-0.08480185,-0.16607391,-0.01672099,-0.0
 0981558,-0.03214430,0.15593697,0.00004075,-0.00006628,0.00028651,-0.00
 003339,-0.00003329,-0.00015940,0.00002754,0.00008664,-0.00006430,-0.00
 027725,-0.00037583,0.00027086,0.00001626,0.00018861,0.00001186,0.00022
 521,0.00003000,-0.00025262,-0.00029599,-0.00087344,0.00012403,-0.00006
 015,-0.00017342,0.00016594,0.00064899,0.00091587,0.00060167,-0.0796459
 9,-0.05486031,-0.08738371,-0.01508708,-0.00746585,-0.02522977,0.094291
 91,0.06190507,0.00003187,0.00005250,0.00013334,0.00002179,-0.00005607,
 -0.00002435,-0.00000173,0.00000819,-0.00002442,-0.00042829,0.00017970,
 0.00049419,0.00019315,0.00000752,-0.00005520,0.00006529,-0.00011858,-0
 .00009967,0.00021135,0.00021610,0.00008882,0.00003051,0.00017220,0.000
 03185,-0.00037636,-0.00007773,-0.00048465,-0.20938620,-0.12094775,-0.3
 6929616,0.01272771,0.00892502,0.00894568,0.19799950,0.11219566,0.36176
 350,0.00215763,-0.00065480,0.00087069,0.00032584,0.00011766,0.00010282
 ,-0.00320641,-0.00013919,-0.00056193,-0.00065482,-0.00018719,-0.002915
 31,0.00021196,0.00045991,-0.00007367,-0.00032546,-0.00058123,0.0004753
 3,-0.00004153,0.00044080,0.00132336,0.00007313,-0.00045956,-0.00034806
 ,-0.00009805,0.00024822,-0.00024163,0.00038427,-0.00010228,0.00021759,
 -0.00006573,0.00002734,-0.00011847,-0.00020199,0.00002132,0.00002409,0
 .54867466,-0.00161379,-0.00475212,0.00381439,0.00035068,0.00061039,0.0
 0080583,0.00120257,0.00186282,-0.00152874,0.00067609,0.00218177,0.0010
 4933,-0.00000203,-0.00030048,0.00028779,-0.00068760,-0.00053270,-0.001
 12556,0.00089476,0.00033205,-0.00130447,-0.00066034,0.00020802,0.00037
 429,0.00012082,-0.00032991,0.00030693,-0.00010630,0.00053277,-0.000054
 06,0.00006021,-0.00019394,-0.00008821,0.00001953,-0.00013978,0.0000452
 9,0.08445848,0.07745137,0.00194481,0.00608054,-0.00206755,-0.00011511,
 0.00026084,-0.00069697,-0.00094822,-0.00140581,-0.00282450,-0.00427192
 ,-0.00049873,-0.00539786,0.00025065,0.00087181,-0.00090117,0.00005390,
 -0.00060232,0.00017256,0.00074887,-0.00038253,0.00001497,-0.00005450,-
 0.00001415,-0.00035085,-0.00001948,-0.00004924,0.00005765,0.00039819,-
 0.00005930,-0.00032509,-0.00014217,-0.00004422,-0.00000957,-0.00006501
 ,0.00007155,0.00015040,0.14566904,-0.13305893,0.53173959,-0.00044162,-
 0.00085969,0.00053085,0.00016819,-0.00013043,0.00010389,0.00038998,0.0
 0080415,-0.00003756,-0.00020561,-0.00000537,-0.00061641,0.00015307,0.0
 0003205,-0.00022598,-0.00009177,-0.00007183,-0.00008017,-0.00021262,-0
 .00001823,-0.00046083,0.00002354,0.00023435,0.00028726,0.00000236,-0.0
 0003945,0.00007565,-0.00013051,0.00007494,0.00000766,0.00004685,-0.000
 01902,0.00003093,0.00002361,-0.00001387,0.00000934,-0.06532012,0.00760
 333,-0.06641812,0.07317139,-0.00042112,-0.00115357,0.00032384,-0.00009
 979,-0.00013078,0.00036840,0.00064750,0.00101493,0.00094981,-0.0002253
 4,0.00020750,-0.00061648,-0.00008464,0.00015938,0.00000171,-0.00012357
 ,0.00003550,-0.00011944,-0.00014699,-0.00018016,0.00045049,0.00025382,
 -0.00009054,-0.00030713,0.00000928,0.00007093,-0.00008188,0.00006864,-
 0.00010843,0.00000689,-0.00000762,0.00003263,0.00000748,-0.00002607,0.
 00003293,-0.00001021,0.02454418,-0.04274149,0.13478456,-0.02000364,0.0
 4085987,-0.00012903,-0.00018172,0.00044058,-0.00008200,0.00004745,0.00
 009381,0.00030970,0.00046407,-0.00057806,-0.00038723,-0.00019920,0.000
 34606,-0.00002843,0.00012464,-0.00019704,0.00001590,0.00004660,-0.0001
 5215,-0.00024136,0.00006716,0.00041208,0.00017807,-0.00015099,-0.00009
 342,-0.00000072,0.00007274,-0.00006606,-0.00003162,-0.00002809,0.00012
 168,0.00001541,0.00000864,-0.00003118,0.00000523,0.00000120,-0.0000397
 9,-0.11687689,0.12156649,-0.46221847,0.11117672,-0.12604160,0.46910554
 ,-0.00021377,0.00045645,-0.00070199,0.00010258,-0.00004927,-0.00002231
 ,-0.00017765,-0.00088029,0.00072282,-0.00254441,-0.00034092,0.00074751
 ,-0.00019615,-0.00001134,-0.00095716,0.00050141,0.00057551,-0.00028919
 ,0.00018897,-0.00006825,-0.00034465,-0.00010841,0.00007490,0.00009903,
 0.00005754,-0.00004321,0.00008884,-0.00013273,0.00000742,-0.00011159,0
 .00002639,0.00000880,0.00003547,0.00008692,-0.00000931,-0.00002414,-0.
 47791512,-0.09209465,-0.07739211,-0.00848835,-0.00423711,0.00638192,0.
 48982074,0.00108884,0.00000636,-0.00011413,0.00008440,-0.00013960,0.00
 011520,-0.00228304,-0.00035977,-0.00019320,-0.00037714,-0.00284507,-0.
 00111764,0.00016926,0.00043973,-0.00064873,0.00028192,0.00001475,0.002
 06427,-0.00030993,-0.00018276,0.00009559,0.00019722,0.00006215,0.00000
 558,-0.00000493,0.00004498,-0.00007965,0.00003074,-0.00016215,0.000002
 68,-0.00001569,0.00005089,0.00003155,-0.00000739,0.00005606,-0.0000026
 9,-0.10921547,-0.03083888,-0.00473430,0.01288224,0.00170679,0.00362140
 ,0.09711719,0.03056344,-0.00085963,0.00006364,-0.00073312,-0.00011303,
 -0.00000680,-0.00016673,0.00063410,-0.00054193,0.00094825,0.00022567,-
 0.00001215,0.00218267,-0.00044849,-0.00072783,0.00036398,0.00042206,0.
 00106431,-0.00034205,-0.00023829,-0.00004950,-0.00040958,-0.00000292,0
 .00007621,0.00015654,0.00009041,-0.00008084,0.00007911,-0.00038847,-0.
 00000333,0.00001310,0.00006587,0.00003537,0.00005415,0.00018301,-0.000
 03170,-0.00011353,-0.02866344,0.00738169,-0.05027680,-0.04449048,-0.00
 909162,-0.00630182,0.06962792,0.00155802,0.05451706,-0.00366128,0.0016
 8564,0.00093575,0.00041111,-0.00065526,-0.00045884,0.00153176,0.000932
 35,0.00014860,-0.01046760,0.00085234,-0.00261766,-0.00061437,-0.000297
 89,0.00046496,-0.00159713,0.00200114,0.00023326,-0.00864090,0.00774934
 ,-0.00024401,0.00030406,0.00016915,-0.00015874,-0.00049370,0.00221920,
 0.00071835,-0.00461487,-0.00098766,0.00211505,-0.00024588,0.00010988,0
 .00161364,0.00154126,0.00015105,-0.00109789,-0.00399825,-0.00022178,0.
 00036116,0.00091160,-0.00014753,-0.00030565,-0.00100795,0.00036178,0.0
 0395569,0.03064214,-0.00093208,-0.00953093,-0.00144188,0.00073586,-0.0
 0060478,0.00036587,0.00145775,-0.00090747,-0.00210892,-0.00038094,-0.0
 0380714,-0.00026454,-0.00068460,0.00069856,0.00020562,0.00419037,0.000
 41699,0.00041783,0.00797527,-0.01378438,0.00090875,0.00056649,-0.00035
 294,-0.00004205,0.00150628,-0.00005683,-0.00077892,-0.00020185,-0.0035
 0456,-0.00102789,-0.00067858,0.00088085,0.00149929,0.00032145,0.000773
 02,-0.00058915,0.00102178,-0.00334987,-0.00121977,-0.00046953,0.000284
 50,0.00058122,-0.00050593,0.00158308,0.00036646,-0.01392174,0.03126190
 ,0.00003948,0.00017300,-0.00355465,-0.00030856,0.00032762,0.00054567,0
 .00096392,-0.00425704,0.00013219,0.00019745,-0.00054051,-0.00364984,-0
 .00083607,0.00023606,0.00030158,-0.00070116,0.00067039,0.00168406,-0.0
 0057723,0.00135147,-0.00395394,-0.00084567,0.00086809,0.00081463,0.002
 06199,-0.00254853,0.00121383,0.00066704,0.00084354,-0.00753058,0.00098
 153,0.00005645,0.00013744,0.00065757,-0.00060778,-0.00147002,0.0011164
 6,0.00152792,-0.00706632,0.00010725,-0.00062483,-0.00084175,0.00213962
 ,-0.00060394,0.00002877,-0.00566365,0.00312807,0.02320893\\0.00000008,
 -0.00000085,0.00000056,0.00000067,0.00000070,0.00000041,0.00000038,-0.
 00000047,0.00000097,0.00000039,-0.00000019,0.00000168,-0.00000081,0.00
 000018,0.00000009,0.00000005,0.00000078,0.00000048,0.00000212,-0.00000
 220,0.00000016,0.00000084,0.00000369,-0.00000281,-0.00000001,0.0000003
 8,0.00000046,-0.00000371,-0.00000142,0.00000350,0.00000236,0.00000319,
 -0.00000239,-0.00000418,-0.00000219,-0.00000381,0.00000185,-0.00000049
 ,0.,0.00000041,-0.00000085,0.00000061,-0.00000040,-0.00000033,0.000000
 03,-0.00000002,0.00000007,0.00000007\\\@


 IF YOU GET CONFUSED, LOGIC OUT YOUR DILEMMA

           --  PICKER X-RAY CORP.    DIGITAL PRINTER MANUAL CA. 1964
 Job cpu time:       0 days  1 hours  1 minutes 47.0 seconds.
 Elapsed time:       0 days  0 hours  1 minutes 33.8 seconds.
 File lengths (MBytes):  RWF=     88 Int=      0 D2E=      0 Chk=      6 Scr=      1
 Normal termination of Gaussian 16 at Mon Jul 18 20:59:08 2022.
