 Entering Gaussian System, Link 0=g16
 Initial command:
 /share/sw/gaussian/g16_B.01_avx2-enabled/g16/l1.exe "/scratch/hnr2/2615639/Gau-14383.inp" -scrdir="/scratch/hnr2/2615639/"
 Entering Link 1 = /share/sw/gaussian/g16_B.01_avx2-enabled/g16/l1.exe PID=     14385.
  
 Copyright (c) 1988-2017, Gaussian, Inc.  All Rights Reserved.
  
 This is part of the Gaussian(R) 16 program.  It is based on
 the Gaussian(R) 09 system (copyright 2009, Gaussian, Inc.),
 the Gaussian(R) 03 system (copyright 2003, Gaussian, Inc.),
 the Gaussian(R) 98 system (copyright 1998, Gaussian, Inc.),
 the Gaussian(R) 94 system (copyright 1995, Gaussian, Inc.),
 the Gaussian 92(TM) system (copyright 1992, Gaussian, Inc.),
 the Gaussian 90(TM) system (copyright 1990, Gaussian, Inc.),
 the Gaussian 88(TM) system (copyright 1988, Gaussian, Inc.),
 the Gaussian 86(TM) system (copyright 1986, Carnegie Mellon
 University), and the Gaussian 82(TM) system (copyright 1983,
 Carnegie Mellon University). Gaussian is a federally registered
 trademark of Gaussian, Inc.
  
 This software contains proprietary and confidential information,
 including trade secrets, belonging to Gaussian, Inc.
  
 This software is provided under written license and may be
 used, copied, transmitted, or stored only in accord with that
 written license.
  
 The following legend is applicable only to US Government
 contracts under FAR:
  
                    RESTRICTED RIGHTS LEGEND
  
 Use, reproduction and disclosure by the US Government is
 subject to restrictions as set forth in subparagraphs (a)
 and (c) of the Commercial Computer Software - Restricted
 Rights clause in FAR 52.227-19.
  
 Gaussian, Inc.
 340 Quinnipiac St., Bldg. 40, Wallingford CT 06492
  
  
 ---------------------------------------------------------------
 Warning -- This program may not be used in any manner that
 competes with the business of Gaussian, Inc. or will provide
 assistance to any competitor of Gaussian, Inc.  The licensee
 of this program is prohibited from giving any competitor of
 Gaussian, Inc. access to this program.  By using this program,
 the user acknowledges that Gaussian, Inc. is engaged in the
 business of creating and licensing software in the field of
 computational chemistry and represents and warrants to the
 licensee that it is not a competitor of Gaussian, Inc. and that
 it will not use this program in any manner prohibited above.
 ---------------------------------------------------------------
  

 Cite this work as:
 Gaussian 16, Revision B.01,
 M. J. Frisch, G. W. Trucks, H. B. Schlegel, G. E. Scuseria, 
 M. A. Robb, J. R. Cheeseman, G. Scalmani, V. Barone, 
 G. A. Petersson, H. Nakatsuji, X. Li, M. Caricato, A. V. Marenich, 
 J. Bloino, B. G. Janesko, R. Gomperts, B. Mennucci, H. P. Hratchian, 
 J. V. Ortiz, A. F. Izmaylov, J. L. Sonnenberg, D. Williams-Young, 
 F. Ding, F. Lipparini, F. Egidi, J. Goings, B. Peng, A. Petrone, 
 T. Henderson, D. Ranasinghe, V. G. Zakrzewski, J. Gao, N. Rega, 
 G. Zheng, W. Liang, M. Hada, M. Ehara, K. Toyota, R. Fukuda, 
 J. Hasegawa, M. Ishida, T. Nakajima, Y. Honda, O. Kitao, H. Nakai, 
 T. Vreven, K. Throssell, J. A. Montgomery, Jr., J. E. Peralta, 
 F. Ogliaro, M. J. Bearpark, J. J. Heyd, E. N. Brothers, K. N. Kudin, 
 V. N. Staroverov, T. A. Keith, R. Kobayashi, J. Normand, 
 K. Raghavachari, A. P. Rendell, J. C. Burant, S. S. Iyengar, 
 J. Tomasi, M. Cossi, J. M. Millam, M. Klene, C. Adamo, R. Cammi, 
 J. W. Ochterski, R. L. Martin, K. Morokuma, O. Farkas, 
 J. B. Foresman, and D. J. Fox, Gaussian, Inc., Wallingford CT, 2016.
 
 ******************************************
 Gaussian 16:  ES64L-G16RevB.01 20-Dec-2017
                18-Jul-2022 
 ******************************************
 %nprocshared=40
 Will use up to   40 processors via shared memory.
 %mem=60GB
 %chk=sim002_type3_coord-5_3-1-1_10C_b1_id81771_step1460.chk
 ----------------------------------------------------------------------
 # opt=(calcall,maxcycles=500,maxstep=10,cartesian) freq iop(1/152=500,
 1/8=10) scf=(maxcycle=500) int(Acc2E=11,grid=ultrafine) rb3lyp/aug-cc-
 pvdz empiricaldispersion=gd3
 ----------------------------------------------------------------------
 1/6=500,8=10,10=4,18=10,26=4,38=1,152=500/1,3;
 2/12=2,17=6,18=5,29=2,40=1/2;
 3/5=16,7=10,11=2,25=1,27=11,30=1,71=2,74=-5,75=-5,116=1,124=31,140=1/1,2,3;
 4//1;
 5/5=2,7=500,38=5,87=11/2;
 8/6=4,10=90,11=11,87=11/1;
 11/6=1,8=1,9=11,15=111,16=1,87=11/1,2,10;
 10/6=1,87=11/2;
 6/7=2,8=2,9=2,10=2,18=1,28=1,87=11/1;
 7/7=1,10=1,25=1,87=11/1,2,3,16;
 1/6=500,8=10,10=4,18=10,26=4,152=500/3(3);
 2/29=1/2;
 7/7=1,8=1,9=1,25=1,44=-1,87=11/16;
 99/12=1/99;
 2/29=1/2;
 3/5=16,7=10,11=2,25=1,27=11,30=1,71=2,74=-5,75=-5,116=1,124=31,140=1/1,2,3;
 4/5=5,16=3,69=1/1;
 5/5=2,7=500,38=5,87=11/2;
 8/6=4,10=90,11=11,87=11/1;
 11/6=1,8=1,9=11,15=111,16=1,87=11/1,2,10;
 10/6=1,87=11/2;
 7/7=1,10=1,25=1,87=11/1,2,3,16;
 1/6=500,8=10,10=4,18=10,26=4,152=500/3(-8);
 2/29=1/2;
 6/7=2,8=2,9=2,10=2,18=1,19=2,28=1,87=11/1;
 7/7=1,8=1,9=1,25=1,44=-1,87=11/16;
 99/12=1/99;
 -----------------------------------------------------------
 MD frame sim002_type3_coord-5_3-1-1_10C_b1_id81771_step1460
 -----------------------------------------------------------
 Symbolic Z-matrix:
 Charge =  1 Multiplicity = 1
 O                     1.00636  -0.4023   -1.98601 
 O                    -0.9576    0.577     2.02114 
 H                     0.93135  -1.24681  -2.43001 
 O                     1.85936  -0.98726   0.96533 
 H                     2.18135  -1.67276   1.55004 
 H                     2.65036  -0.56126   0.63564 
 H                     0.34336   0.1477   -2.403 
 H                    -1.7252    0.9862    2.42024 
 H                    -0.2221    0.8728    2.55724 
 O                     0.6502    2.32475  -0.68046 
 H                     0.635     2.86476  -1.47096 
 H                     1.5803    2.19876  -0.49386 
 O                    -1.11464  -2.57385  -0.09926 
 H                    -1.72564  -2.67237   0.63084 
 H                    -0.95964  -3.46745  -0.40476 
 Na                    0.        0.        0. 
 

 GradGradGradGradGradGradGradGradGradGradGradGradGradGradGradGradGradGrad
 Berny optimization.
 Initialization pass.
 No Z-matrix variables, so optimization will use Cartesian coordinates.
 Trust Radius=1.00D-01 FncErr=1.00D-07 GrdErr=1.00D-06 EigMax=2.50D+02 EigMin=1.00D-04
 Number of steps in this run=    500 maximum allowed number of steps=    500.
 GradGradGradGradGradGradGradGradGradGradGradGradGradGradGradGradGradGrad

 ---------------------------------------------------------------------------------------------------
                            Z-MATRIX (ANGSTROMS AND DEGREES)
   CD    Cent   Atom    N1       Length/X        N2       Alpha/Y        N3        Beta/Z          J
 ---------------------------------------------------------------------------------------------------
      1      1  O        0   1.006360         -0.402300         -1.986010
      2      2  O        0  -0.957600          0.577000          2.021140
      3      3  H        0   0.931350         -1.246810         -2.430010
      4      4  O        0   1.859360         -0.987260          0.965330
      5      5  H        0   2.181350         -1.672760          1.550040
      6      6  H        0   2.650360         -0.561260          0.635640
      7      7  H        0   0.343360          0.147700         -2.403000
      8      8  H        0  -1.725200          0.986200          2.420240
      9      9  H        0  -0.222100          0.872800          2.557240
     10     10  O        0   0.650200          2.324750         -0.680460
     11     11  H        0   0.635000          2.864760         -1.470960
     12     12  H        0   1.580300          2.198760         -0.493860
     13     13  O        0  -1.114640         -2.573850         -0.099260
     14     14  H        0  -1.725640         -2.672370          0.630840
     15     15  H        0  -0.959640         -3.467450         -0.404760
     16     16  Na       0   0.000000          0.000000          0.000000
 ---------------------------------------------------------------------------------------------------
                         Z-Matrix orientation:                         
 ---------------------------------------------------------------------
 Center     Atomic      Atomic             Coordinates (Angstroms)
 Number     Number       Type             X           Y           Z
 ---------------------------------------------------------------------
      1          8           0        1.006360   -0.402300   -1.986010
      2          8           0       -0.957600    0.577000    2.021140
      3          1           0        0.931350   -1.246810   -2.430010
      4          8           0        1.859360   -0.987260    0.965330
      5          1           0        2.181350   -1.672760    1.550040
      6          1           0        2.650360   -0.561260    0.635640
      7          1           0        0.343360    0.147700   -2.403000
      8          1           0       -1.725200    0.986200    2.420240
      9          1           0       -0.222100    0.872800    2.557240
     10          8           0        0.650200    2.324750   -0.680460
     11          1           0        0.635000    2.864760   -1.470960
     12          1           0        1.580300    2.198760   -0.493860
     13          8           0       -1.114640   -2.573850   -0.099260
     14          1           0       -1.725640   -2.672370    0.630840
     15          1           0       -0.959640   -3.467450   -0.404760
     16         11           0        0.000000    0.000000    0.000000
 ---------------------------------------------------------------------
                    Distance matrix (angstroms):
                    1          2          3          4          5
     1  O    0.000000
     2  O    4.568744   0.000000
     3  H    0.957058   5.167896   0.000000
     4  O    3.127330   3.390709   3.529434   0.000000
     5  H    3.936791   3.890548   4.193415   0.956804   0.000000
     6  H    3.098557   4.028973   3.580947   0.957002   1.513780
     7  H    0.957053   4.631394   1.513645   3.864199   4.724278
     8  H    5.366972   0.957045   5.963935   4.342854   4.805044
     9  H    4.876076   0.957006   5.540384   3.213484   3.642925
    10  O    3.044357   3.596984   3.986980   3.891029   4.826970
    11  H    3.328193   4.468219   4.232329   4.719388   5.666280
    12  H    3.053102   3.923808   4.005217   3.515371   4.418988
    13  O    3.574087   3.801133   3.373352   3.534869   3.794167
    14  H    4.411910   3.616798   4.296582   3.975387   4.136269
    15  H    3.969969   4.716203   3.550876   3.996905   4.111931
    16  Na   2.262486   2.309748   2.885636   2.315980   3.155794
                    6          7          8          9         10
     6  H    0.000000
     7  H    3.880490   0.000000
     8  H    4.972419   5.314665   0.000000
     9  H    3.741671   5.044749   1.513585   0.000000
    10  O    3.749908   2.792999   4.128993   3.654007   0.000000
    11  H    4.498561   2.887242   4.923512   4.574814   0.957461
    12  H    3.168361   3.062953   4.570406   3.783653   0.956963
    13  O    4.331954   3.852248   4.403932   4.442186   5.239154
    14  H    4.858620   4.630091   4.072725   4.305796   5.686416
    15  H    4.749787   4.331291   5.329325   5.306145   6.018071
    16  Na   2.782707   2.431896   3.131528   2.711196   2.508037
                   11         12         13         14         15
    11  H    0.000000
    12  H    1.513893   0.000000
    13  O    5.875481   5.495108   0.000000
    14  H    6.375735   5.993505   0.957117   0.000000
    15  H    6.616384   6.210086   0.957014   1.513729   0.000000
    16  Na   3.282346   2.752416   2.806596   3.243047   3.620490
                   16
    16  Na   0.000000
 Stoichiometry    H10NaO5(1+)
 Framework group  C1[X(H10NaO5)]
 Deg. of freedom    42
 Full point group                 C1      NOp   1
 Largest Abelian subgroup         C1      NOp   1
 Largest concise Abelian subgroup C1      NOp   1
                         Standard orientation:                         
 ---------------------------------------------------------------------
 Center     Atomic      Atomic             Coordinates (Angstroms)
 Number     Number       Type             X           Y           Z
 ---------------------------------------------------------------------
      1          8           0        0.520494   -2.098301   -0.216246
      2          8           0       -0.163251    2.418271   -0.296781
      3          1           0       -0.172525   -2.749546   -0.323782
      4          8           0       -0.441737   -0.084200    1.974120
      5          1           0       -1.105416    0.057471    2.648607
      6          1           0        0.281182   -0.510654    2.433878
      7          1           0        0.910592   -2.017172   -1.086413
      8          1           0       -0.129420    3.189904   -0.861912
      9          1           0        0.217108    2.710567    0.531319
     10          8           0        2.596488    0.116291   -0.448502
     11          1           0        3.274177   -0.367194   -0.921484
     12          1           0        2.735589   -0.112472    0.470246
     13          8           0       -2.599404   -0.455654   -0.801090
     14          1           0       -3.059232    0.363543   -0.984249
     15          1           0       -3.296371   -1.090421   -0.636212
     16         11           0        0.094873    0.123157   -0.269274
 ---------------------------------------------------------------------
 Rotational constants (GHZ):           1.7043031           1.3945212           1.0890183
 Standard basis: Aug-CC-pVDZ (5D, 7F)
 There are   244 symmetry adapted cartesian basis functions of A   symmetry.
 There are   232 symmetry adapted basis functions of A   symmetry.
   232 basis functions,   406 primitive gaussians,   244 cartesian basis functions
    30 alpha electrons       30 beta electrons
       nuclear repulsion energy       299.9494111753 Hartrees.
 NAtoms=   16 NActive=   16 NUniq=   16 SFac= 1.00D+00 NAtFMM=   60 NAOKFM=F Big=F
 Integral buffers will be    131072 words long.
 Raffenetti 2 integral format.
 Two-electron integral symmetry is turned on.
 Nuclear repulsion after empirical dispersion term =      299.9408452022 Hartrees.
 One-electron integrals computed using PRISM.
 NBasis=   232 RedAO= T EigKep=  3.38D-04  NBF=   232
 NBsUse=   232 1.00D-06 EigRej= -1.00D+00 NBFU=   232
 ExpMin= 6.16D-03 ExpMax= 3.17D+04 ExpMxC= 1.08D+03 IAcc=3 IRadAn=         5 AccDes= 0.00D+00
 Harris functional with IExCor=  402 and IRadAn=       5 diagonalized for initial guess.
 HarFok:  IExCor=  402 AccDes= 0.00D+00 IRadAn=         5 IDoV= 1 UseB2=F ITyADJ=14
 ICtDFT=  3500011 ScaDFX=  1.000000  1.000000  1.000000  1.000000
 FoFCou: FMM=F IPFlag=           0 FMFlag=      100000 FMFlg1=           0
         NFxFlg=           0 DoJE=T BraDBF=F KetDBF=T FulRan=T
         wScrn=  0.000000 ICntrl=       500 IOpCl=  0 I1Cent=   200000004 NGrid=           0
         NMat0=    1 NMatS0=      1 NMatT0=    0 NMatD0=    1 NMtDS0=    0 NMtDT0=    0
 Petite list used in FoFCou.
 Requested convergence on RMS density matrix=1.00D-08 within 500 cycles.
 Requested convergence on MAX density matrix=1.00D-06.
 Requested convergence on             energy=1.00D-06.
 No special actions if energy rises.
 SCF Done:  E(RB3LYP) =  -544.441323747     A.U. after   10 cycles
            NFock= 10  Conv=0.62D-08     -V/T= 2.0055
 DoSCS=F DFT=T ScalE2(SS,OS)=  1.000000  1.000000
 Range of M.O.s used for correlation:     1   232
 NBasis=   232 NAE=    30 NBE=    30 NFC=     0 NFV=     0
 NROrb=    232 NOA=    30 NOB=    30 NVA=   202 NVB=   202

 **** Warning!!: The largest alpha MO coefficient is  0.11750227D+02

 Symmetrizing basis deriv contribution to polar:
 IMax=3 JMax=2 DiffMx= 0.00D+00
 G2DrvN: will do    17 centers at a time, making    1 passes.
 Calling FoFCou, ICntrl=  3107 FMM=F I1Cent=   0 AccDes= 1.00D-11.
 End of G2Drv F.D. properties file   721 does not exist.
 End of G2Drv F.D. properties file   722 does not exist.
 End of G2Drv F.D. properties file   788 does not exist.
          IDoAtm=1111111111111111
          Differentiating once with respect to electric field.
                with respect to dipole field.
          Differentiating once with respect to nuclear coordinates.
 Keep R1 ints in memory in canonical form, NReq=408195318.
          There are    51 degrees of freedom in the 1st order CPHF.  IDoFFX=6 NUNeed=     3.
     48 vectors produced by pass  0 Test12= 1.19D-14 1.96D-09 XBig12= 2.21D+01 9.96D-01.
 AX will form    48 AO Fock derivatives at one time.
     48 vectors produced by pass  1 Test12= 1.19D-14 1.96D-09 XBig12= 1.68D+00 2.40D-01.
     48 vectors produced by pass  2 Test12= 1.19D-14 1.96D-09 XBig12= 1.83D-02 1.69D-02.
     48 vectors produced by pass  3 Test12= 1.19D-14 1.96D-09 XBig12= 4.25D-05 8.30D-04.
     48 vectors produced by pass  4 Test12= 1.19D-14 1.96D-09 XBig12= 5.77D-08 2.74D-05.
     21 vectors produced by pass  5 Test12= 1.19D-14 1.96D-09 XBig12= 4.69D-11 7.07D-07.
      3 vectors produced by pass  6 Test12= 1.19D-14 1.96D-09 XBig12= 3.32D-14 2.29D-08.
 InvSVY:  IOpt=1 It=  1 EMax= 8.88D-15
 Solved reduced A of dimension   264 with    51 vectors.
 Isotropic polarizability for W=    0.000000       46.60 Bohr**3.
 End of Minotr F.D. properties file   721 does not exist.
 End of Minotr F.D. properties file   722 does not exist.
 End of Minotr F.D. properties file   788 does not exist.

 **********************************************************************

            Population analysis using the SCF Density.

 **********************************************************************

 Orbital symmetries:
       Occupied  (A) (A) (A) (A) (A) (A) (A) (A) (A) (A) (A) (A)
                 (A) (A) (A) (A) (A) (A) (A) (A) (A) (A) (A) (A)
                 (A) (A) (A) (A) (A) (A)
       Virtual   (A) (A) (A) (A) (A) (A) (A) (A) (A) (A) (A) (A)
                 (A) (A) (A) (A) (A) (A) (A) (A) (A) (A) (A) (A)
                 (A) (A) (A) (A) (A) (A) (A) (A) (A) (A) (A) (A)
                 (A) (A) (A) (A) (A) (A) (A) (A) (A) (A) (A) (A)
                 (A) (A) (A) (A) (A) (A) (A) (A) (A) (A) (A) (A)
                 (A) (A) (A) (A) (A) (A) (A) (A) (A) (A) (A) (A)
                 (A) (A) (A) (A) (A) (A) (A) (A) (A) (A) (A) (A)
                 (A) (A) (A) (A) (A) (A) (A) (A) (A) (A) (A) (A)
                 (A) (A) (A) (A) (A) (A) (A) (A) (A) (A) (A) (A)
                 (A) (A) (A) (A) (A) (A) (A) (A) (A) (A) (A) (A)
                 (A) (A) (A) (A) (A) (A) (A) (A) (A) (A) (A) (A)
                 (A) (A) (A) (A) (A) (A) (A) (A) (A) (A) (A) (A)
                 (A) (A) (A) (A) (A) (A) (A) (A) (A) (A) (A) (A)
                 (A) (A) (A) (A) (A) (A) (A) (A) (A) (A) (A) (A)
                 (A) (A) (A) (A) (A) (A) (A) (A) (A) (A) (A) (A)
                 (A) (A) (A) (A) (A) (A) (A) (A) (A) (A) (A) (A)
                 (A) (A) (A) (A) (A) (A) (A) (A) (A) (A)
 The electronic state is 1-A.
 Alpha  occ. eigenvalues --  -38.59808 -19.31763 -19.31640 -19.31497 -19.31431
 Alpha  occ. eigenvalues --  -19.29435  -2.33368  -1.26803  -1.26692  -1.26524
 Alpha  occ. eigenvalues --   -1.18670  -1.18242  -1.18210  -1.18094  -1.16008
 Alpha  occ. eigenvalues --   -0.70129  -0.70012  -0.69743  -0.69640  -0.67586
 Alpha  occ. eigenvalues --   -0.57763  -0.56855  -0.56488  -0.56335  -0.54373
 Alpha  occ. eigenvalues --   -0.49003  -0.48384  -0.48158  -0.48126  -0.45917
 Alpha virt. eigenvalues --   -0.17240  -0.13827  -0.13588  -0.12892  -0.10778
 Alpha virt. eigenvalues --   -0.09115  -0.08406  -0.07602  -0.07010  -0.06323
 Alpha virt. eigenvalues --   -0.05594  -0.05423  -0.05380  -0.05119  -0.04548
 Alpha virt. eigenvalues --   -0.03945  -0.03287  -0.02541  -0.00928  -0.00615
 Alpha virt. eigenvalues --   -0.00372   0.00223   0.01002   0.01185   0.02105
 Alpha virt. eigenvalues --    0.02385   0.02781   0.03316   0.03376   0.04127
 Alpha virt. eigenvalues --    0.04333   0.04415   0.04801   0.05664   0.06076
 Alpha virt. eigenvalues --    0.06586   0.06929   0.06997   0.08057   0.08307
 Alpha virt. eigenvalues --    0.09191   0.09383   0.10077   0.11190   0.11432
 Alpha virt. eigenvalues --    0.12527   0.13023   0.15099   0.15719   0.17339
 Alpha virt. eigenvalues --    0.17773   0.17995   0.19271   0.19910   0.21060
 Alpha virt. eigenvalues --    0.22032   0.22730   0.23322   0.23839   0.24979
 Alpha virt. eigenvalues --    0.25268   0.25959   0.27710   0.28158   0.29929
 Alpha virt. eigenvalues --    0.30719   0.30820   0.31648   0.32822   0.33480
 Alpha virt. eigenvalues --    0.34156   0.34814   0.35750   0.36396   0.36983
 Alpha virt. eigenvalues --    0.37792   0.38380   0.39050   0.40128   0.41606
 Alpha virt. eigenvalues --    0.41975   0.42926   0.43285   0.43598   0.44231
 Alpha virt. eigenvalues --    0.45459   0.46109   0.47365   0.48569   0.48794
 Alpha virt. eigenvalues --    0.50219   0.56822   0.58110   0.58858   0.61647
 Alpha virt. eigenvalues --    0.62203   0.65405   0.68851   0.70664   0.71234
 Alpha virt. eigenvalues --    0.72852   0.79881   0.80329   0.81178   0.81852
 Alpha virt. eigenvalues --    0.82969   0.83565   0.85129   0.86035   0.87214
 Alpha virt. eigenvalues --    0.89690   0.91477   0.91731   0.93152   0.95384
 Alpha virt. eigenvalues --    0.97489   1.01227   1.02558   1.04278   1.06777
 Alpha virt. eigenvalues --    1.08019   1.10050   1.11078   1.14346   1.15358
 Alpha virt. eigenvalues --    1.16633   1.20279   1.21295   1.23776   1.24388
 Alpha virt. eigenvalues --    1.27200   1.30873   1.39839   1.47018   1.52489
 Alpha virt. eigenvalues --    1.54250   1.61371   1.63635   1.64692   1.65449
 Alpha virt. eigenvalues --    1.65732   1.68355   1.70919   1.73958   1.74364
 Alpha virt. eigenvalues --    1.76953   1.77533   1.77870   1.80365   1.81384
 Alpha virt. eigenvalues --    1.83331   1.97114   1.98937   2.01649   2.02142
 Alpha virt. eigenvalues --    2.02897   2.03210   2.04333   2.05866   2.06361
 Alpha virt. eigenvalues --    2.07103   2.14949   2.18529   2.19160   2.20096
 Alpha virt. eigenvalues --    2.20802   2.31468   2.34683   2.35842   2.36248
 Alpha virt. eigenvalues --    2.40119   2.44882   2.59536   2.63191   2.64677
 Alpha virt. eigenvalues --    2.66730   2.69690   3.15907   3.16773   3.17369
 Alpha virt. eigenvalues --    3.17822   3.18744   3.19430   3.19801   3.20893
 Alpha virt. eigenvalues --    3.21605   3.23651   3.24515   3.25458   3.26445
 Alpha virt. eigenvalues --    3.30206   3.31557   3.51702   3.54132   3.55725
 Alpha virt. eigenvalues --    3.56747   3.58448   3.77004   3.78258   3.79145
 Alpha virt. eigenvalues --    3.79886   3.81066
          Condensed to atoms (all electrons):
               1          2          3          4          5          6
     1  O    7.659644   0.001078   0.334003  -0.032372   0.001239   0.005497
     2  O    0.001078   7.578841   0.000633  -0.010372   0.004168  -0.001092
     3  H    0.334003   0.000633   0.582971  -0.000676   0.000898  -0.001644
     4  O   -0.032372  -0.010372  -0.000676   7.664393   0.333963   0.369481
     5  H    0.001239   0.004168   0.000898   0.333963   0.594543  -0.108761
     6  H    0.005497  -0.001092  -0.001644   0.369481  -0.108761   0.637932
     7  H    0.284521   0.000531  -0.090714   0.002900  -0.000226   0.001391
     8  H    0.000070   0.337043   0.000109   0.002029   0.000357   0.000127
     9  H   -0.000223   0.347913  -0.000067   0.005044  -0.000279   0.000165
    10  O   -0.025478  -0.016903   0.004705  -0.000288   0.000966  -0.003849
    11  H    0.004879   0.001084  -0.000159   0.000186  -0.000198   0.000087
    12  H    0.001970  -0.001041   0.000220   0.001679  -0.000066   0.000263
    13  O   -0.010286  -0.008362   0.004638  -0.006842   0.000353   0.002104
    14  H    0.000625   0.004929  -0.000054  -0.000937   0.000753  -0.000670
    15  H   -0.000363  -0.000443  -0.000216   0.002480  -0.000520   0.000295
    16  Na  -0.004716  -0.003192   0.005940  -0.048612   0.009814  -0.033240
               7          8          9         10         11         12
     1  O    0.284521   0.000070  -0.000223  -0.025478   0.004879   0.001970
     2  O    0.000531   0.337043   0.347913  -0.016903   0.001084  -0.001041
     3  H   -0.090714   0.000109  -0.000067   0.004705  -0.000159   0.000220
     4  O    0.002900   0.002029   0.005044  -0.000288   0.000186   0.001679
     5  H   -0.000226   0.000357  -0.000279   0.000966  -0.000198  -0.000066
     6  H    0.001391   0.000127   0.000165  -0.003849   0.000087   0.000263
     7  H    0.652145  -0.000364  -0.000520  -0.008580   0.007019  -0.003646
     8  H   -0.000364   0.591293  -0.103510   0.000894   0.000276  -0.000226
     9  H   -0.000520  -0.103510   0.635211   0.003009  -0.000560   0.001534
    10  O   -0.008580   0.000894   0.003009   7.529592   0.313463   0.343026
    11  H    0.007019   0.000276  -0.000560   0.313463   0.619503  -0.093397
    12  H   -0.003646  -0.000226   0.001534   0.343026  -0.093397   0.617200
    13  O   -0.004208   0.000331   0.002593   0.000898   0.000116   0.001023
    14  H   -0.001119   0.000108   0.000225   0.000144  -0.000146   0.000046
    15  H    0.000853  -0.000100  -0.000093   0.000025   0.000037  -0.000014
    16  Na   0.017798   0.009968  -0.015232   0.024983   0.011445  -0.016735
              13         14         15         16
     1  O   -0.010286   0.000625  -0.000363  -0.004716
     2  O   -0.008362   0.004929  -0.000443  -0.003192
     3  H    0.004638  -0.000054  -0.000216   0.005940
     4  O   -0.006842  -0.000937   0.002480  -0.048612
     5  H    0.000353   0.000753  -0.000520   0.009814
     6  H    0.002104  -0.000670   0.000295  -0.033240
     7  H   -0.004208  -0.001119   0.000853   0.017798
     8  H    0.000331   0.000108  -0.000100   0.009968
     9  H    0.002593   0.000225  -0.000093  -0.015232
    10  O    0.000898   0.000144   0.000025   0.024983
    11  H    0.000116  -0.000146   0.000037   0.011445
    12  H    0.001023   0.000046  -0.000014  -0.016735
    13  O    7.504040   0.352856   0.336371   0.013302
    14  H    0.352856   0.635445  -0.099700  -0.010271
    15  H    0.336371  -0.099700   0.614473   0.007118
    16  Na   0.013302  -0.010271   0.007118  10.364146
 Mulliken charges:
               1
     1  O   -0.220088
     2  O   -0.234816
     3  H    0.159414
     4  O   -0.282056
     5  H    0.162996
     6  H    0.131913
     7  H    0.142220
     8  H    0.161594
     9  H    0.124787
    10  O   -0.166607
    11  H    0.136364
    12  H    0.148163
    13  O   -0.188928
    14  H    0.117765
    15  H    0.139797
    16  Na   0.667482
 Sum of Mulliken charges =   1.00000
 Mulliken charges with hydrogens summed into heavy atoms:
               1
     1  O    0.081545
     2  O    0.051565
     4  O    0.012853
    10  O    0.117920
    13  O    0.068635
    16  Na   0.667482
 APT charges:
               1
     1  O   -0.539878
     2  O   -0.560211
     3  H    0.297658
     4  O   -0.554418
     5  H    0.299243
     6  H    0.281170
     7  H    0.277522
     8  H    0.299690
     9  H    0.288880
    10  O   -0.547306
    11  H    0.294697
    12  H    0.277950
    13  O   -0.549098
    14  H    0.275204
    15  H    0.279839
    16  Na   0.879059
 Sum of APT charges =   1.00000
 APT charges with hydrogens summed into heavy atoms:
               1
     1  O    0.035303
     2  O    0.028358
     4  O    0.025995
    10  O    0.025341
    13  O    0.005945
    16  Na   0.879059
 Electronic spatial extent (au):  <R**2>=           1199.3183
 Charge=              1.0000 electrons
 Dipole moment (field-independent basis, Debye):
    X=              0.1034    Y=             -0.0302    Z=              0.5601  Tot=              0.5703
 Quadrupole moment (field-independent basis, Debye-Ang):
   XX=            -12.4312   YY=            -17.2912   ZZ=            -22.0899
   XY=             -0.8115   XZ=             -0.2751   YZ=              1.5146
 Traceless Quadrupole moment (field-independent basis, Debye-Ang):
   XX=              4.8395   YY=             -0.0204   ZZ=             -4.8191
   XY=             -0.8115   XZ=             -0.2751   YZ=              1.5146
 Octapole moment (field-independent basis, Debye-Ang**2):
  XXX=            -13.2134  YYY=             25.8618  ZZZ=             27.7895  XYY=             -8.5076
  XXY=            -19.0239  XXZ=             -9.8210  XZZ=              1.4133  YZZ=             -0.9123
  YYZ=            -14.9105  XYZ=              6.6889
 Hexadecapole moment (field-independent basis, Debye-Ang**3):
 XXXX=           -269.5521 YYYY=           -237.4895 ZZZZ=           -148.6272 XXXY=            -13.7132
 XXXZ=             10.6117 YYYX=             31.8583 YYYZ=             -3.2074 ZZZX=            -32.0978
 ZZZY=            -11.4850 XXYY=           -166.3835 XXZZ=           -106.4772 YYZZ=            -94.0038
 XXYZ=             10.0400 YYXZ=              4.0355 ZZXY=            -15.6177
 N-N= 2.999408452022D+02 E-N=-1.883148546002D+03  KE= 5.414669835469D+02
  Exact polarizability:  47.859   0.398  46.709  -0.268  -0.214  45.243
 Approx polarizability:  55.997   0.176  54.976  -0.403  -1.119  56.681
 Calling FoFJK, ICntrl=    100127 FMM=F ISym2X=0 I1Cent= 0 IOpClX= 0 NMat=1 NMatS=1 NMatT=0.
 ***** Axes restored to original set *****
 -------------------------------------------------------------------
 Center     Atomic                   Forces (Hartrees/Bohr)
 Number     Number              X              Y              Z
 -------------------------------------------------------------------
      1        8           0.001312981    0.003481800    0.007221158
      2        8           0.002101832   -0.005093545   -0.008540198
      3        1           0.001694324   -0.009381663   -0.004133886
      4        8          -0.006875666    0.006713773   -0.001652153
      5        1           0.000180041   -0.006878103    0.006082963
      6        1           0.009260233    0.001780688   -0.003749867
      7        1          -0.002600599    0.007169160   -0.011620335
      8        1          -0.008349072    0.003133834    0.001962168
      9        1           0.006940153    0.002004670    0.007588274
     10        8          -0.008141857   -0.010836701    0.005565402
     11        1          -0.001536682    0.006606214   -0.006321425
     12        1           0.010545081    0.002915621    0.000708745
     13        8           0.004526822    0.012666075   -0.002052641
     14        1          -0.006345265   -0.001238661    0.006605819
     15        1           0.002104767   -0.007206377   -0.003844101
     16       11          -0.004817095   -0.005836784    0.006180075
 -------------------------------------------------------------------
 Cartesian Forces:  Max     0.012666075 RMS     0.006130599

 GradGradGradGradGradGradGradGradGradGradGradGradGradGradGradGradGradGrad
 Berny optimization.
 Search for a local minimum.
 Step number   1 out of a maximum of  500
 All quantities printed in internal units (Hartrees-Bohrs-Radians)
 Second derivative matrix not updated -- analytic derivatives used.
 ITU=  0
     Eigenvalues ---   -0.00937  -0.00773  -0.00688  -0.00605  -0.00542
     Eigenvalues ---   -0.00507  -0.00467  -0.00375  -0.00297  -0.00244
     Eigenvalues ---   -0.00198  -0.00186  -0.00161  -0.00111  -0.00027
     Eigenvalues ---    0.00019   0.00088   0.00163   0.00318   0.00431
     Eigenvalues ---    0.00518   0.00610   0.00941   0.01359   0.01554
     Eigenvalues ---    0.03132   0.06530   0.15473   0.15661   0.15896
     Eigenvalues ---    0.16130   0.16296   0.88618   0.90838   0.92661
     Eigenvalues ---    0.93580   0.94323   1.11686   1.16456   1.18765
     Eigenvalues ---    1.21487   1.27239
 RFO step:  Lambda=-1.56845240D-02 EMin=-9.37173651D-03
 Linear search not attempted -- first point.
 Maximum step size (   0.100) exceeded in Quadratic search.
    -- Step size scaled by   0.123
 B after Tr=    -0.001034   -0.002579    0.002948
         Rot=    1.000000    0.000563   -0.000171   -0.000331 Ang=   0.08 deg.
 Variable       Old X    -DE/DX   Delta X   Delta X   Delta X     New X
                                 (Linear)    (Quad)   (Total)
    X1        1.90174   0.00131   0.00000  -0.01797  -0.01979   1.88196
    Y1       -0.76024   0.00348   0.00000  -0.00120  -0.00675  -0.76699
    Z1       -3.75301   0.00722   0.00000   0.00442   0.00758  -3.74543
    X2       -1.80960   0.00210   0.00000   0.00256   0.00211  -1.80749
    Y2        1.09037  -0.00509   0.00000   0.00085   0.00137   1.09174
    Z2        3.81940  -0.00854   0.00000  -0.00171   0.00063   3.82003
    X3        1.76000   0.00169   0.00000  -0.00532  -0.00638   1.75362
    Y3       -2.35613  -0.00938   0.00000   0.00714   0.00053  -2.35559
    Z3       -4.59205  -0.00413   0.00000  -0.01711  -0.01212  -4.60417
    X4        3.51368  -0.00688   0.00000   0.00699   0.00780   3.52148
    Y4       -1.86565   0.00671   0.00000   0.02802   0.02984  -1.83581
    Z4        1.82421  -0.00165   0.00000   0.01446   0.01826   1.84247
    X5        4.12215   0.00018   0.00000  -0.01010  -0.00804   4.11411
    Y5       -3.16106  -0.00688   0.00000  -0.00819  -0.00477  -3.16583
    Z5        2.92915   0.00608   0.00000  -0.01546  -0.01035   2.91880
    X6        5.00845   0.00926   0.00000   0.01869   0.01877   5.02722
    Y6       -1.06063   0.00178   0.00000  -0.00026   0.00184  -1.05879
    Z6        1.20119  -0.00375   0.00000   0.00172   0.00414   1.20532
    X7        0.64886  -0.00260   0.00000   0.03403   0.03122   0.68008
    Y7        0.27911   0.00717   0.00000   0.03136   0.02407   0.30319
    Z7       -4.54101  -0.01162   0.00000  -0.03850  -0.03614  -4.57715
    X8       -3.26016  -0.00835   0.00000  -0.00545  -0.00615  -3.26631
    Y8        1.86365   0.00313   0.00000  -0.00875  -0.00835   1.85530
    Z8        4.57359   0.00196   0.00000  -0.00295  -0.00097   4.57262
    X9       -0.41971   0.00694   0.00000  -0.00265  -0.00311  -0.42282
    Y9        1.64935   0.00200   0.00000  -0.00900  -0.00641   1.64294
    Z9        4.83248   0.00759   0.00000   0.01431   0.01555   4.84803
   X10        1.22870  -0.00814   0.00000   0.00816   0.00379   1.23249
   Y10        4.39314  -0.01084   0.00000  -0.02311  -0.02633   4.36681
   Z10       -1.28588   0.00557   0.00000  -0.00768  -0.01007  -1.29596
   X11        1.19998  -0.00154   0.00000  -0.00349  -0.00906   1.19092
   Y11        5.41361   0.00661   0.00000   0.00153  -0.00338   5.41023
   Z11       -2.77971  -0.00632   0.00000   0.00697   0.00341  -2.77630
   X12        2.98633   0.01055   0.00000   0.01283   0.00872   2.99505
   Y12        4.15505   0.00292   0.00000   0.00723   0.00558   4.16063
   Z12       -0.93326   0.00071   0.00000  -0.00133  -0.00410  -0.93736
   X13       -2.10636   0.00453   0.00000   0.01441   0.01653  -2.08984
   Y13       -4.86387   0.01267   0.00000   0.01175   0.00760  -4.85628
   Z13       -0.18757  -0.00205   0.00000   0.01070   0.01983  -0.16775
   X14       -3.26099  -0.00635   0.00000  -0.00956  -0.00684  -3.26783
   Y14       -5.05005  -0.00124   0.00000   0.00891   0.00550  -5.04455
   Z14        1.19211   0.00661   0.00000  -0.00720   0.00254   1.19466
   X15       -1.81346   0.00210   0.00000  -0.01543  -0.01241  -1.82586
   Y15       -6.55253  -0.00721   0.00000   0.01409   0.00942  -6.54311
   Z15       -0.76489  -0.00384   0.00000  -0.01839  -0.00745  -0.77234
   X16       -0.00000  -0.00482   0.00000  -0.01615  -0.01716  -0.01716
   Y16        0.00000  -0.00584   0.00000  -0.02719  -0.02977  -0.02977
   Z16        0.00000   0.00618   0.00000   0.00629   0.00927   0.00927
         Item               Value     Threshold  Converged?
 Maximum Force            0.012666     0.000450     NO 
 RMS     Force            0.006131     0.000300     NO 
 Maximum Displacement     0.036138     0.001800     NO 
 RMS     Displacement     0.013855     0.001200     NO 
 Predicted change in Energy=-1.579580D-03
 GradGradGradGradGradGradGradGradGradGradGradGradGradGradGradGradGradGrad

                          Input orientation:                          
 ---------------------------------------------------------------------
 Center     Atomic      Atomic             Coordinates (Angstroms)
 Number     Number       Type             X           Y           Z
 ---------------------------------------------------------------------
      1          8           0        0.995889   -0.405872   -1.981998
      2          8           0       -0.956483    0.577723    2.021473
      3          1           0        0.927973   -1.246527   -2.436424
      4          8           0        1.863487   -0.971469    0.974995
      5          1           0        2.177093   -1.675282    1.544561
      6          1           0        2.660292   -0.560286    0.637828
      7          1           0        0.359883    0.160439   -2.422123
      8          1           0       -1.728455    0.981781    2.419727
      9          1           0       -0.223746    0.869409    2.565469
     10          8           0        0.652208    2.310816   -0.685791
     11          1           0        0.630206    2.862972   -1.469155
     12          1           0        1.584915    2.201711   -0.496027
     13          8           0       -1.105894   -2.569831   -0.088768
     14          1           0       -1.729262   -2.669459    0.632185
     15          1           0       -0.966205   -3.462463   -0.408705
     16         11           0       -0.009081   -0.015753    0.004905
 ---------------------------------------------------------------------
                    Distance matrix (angstroms):
                    1          2          3          4          5
     1  O    0.000000
     2  O    4.561469   0.000000
     3  H    0.958027   5.172225   0.000000
     4  O    3.133119   3.383392   3.548044   0.000000
     5  H    3.929793   3.888802   4.194326   0.958180   0.000000
     6  H    3.107664   4.036162   3.594841   0.957941   1.516200
     7  H    0.958604   4.653224   1.517394   3.883613   4.733573
     8  H    5.359367   0.958024   5.966923   4.336414   4.804083
     9  H    4.877838   0.958078   5.551808   3.205461   3.644412
    10  O    3.029630   3.594548   3.974349   3.872828   4.815467
    11  H    3.328975   4.463679   4.232288   4.711453   5.663136
    12  H    3.058520   3.928593   4.010867   3.508643   4.421058
    13  O    3.561534   3.792432   3.376275   3.536039   3.774385
    14  H    4.402752   3.615453   4.301395   3.988550   4.132848
    15  H    3.958259   4.714760   3.551046   4.015822   4.109694
    16  Na   2.260518   2.305717   2.890149   2.315379   3.147052
                    6          7          8          9         10
     6  H    0.000000
     7  H    3.895463   0.000000
     8  H    4.981389   5.336597   0.000000
     9  H    3.752000   5.071423   1.515921   0.000000
    10  O    3.745344   2.779284   4.132569   3.662737   0.000000
    11  H    4.503258   2.878351   4.921947   4.580581   0.958656
    12  H    3.173436   3.062244   4.579112   3.797241   0.958048
    13  O    4.330170   3.879101   4.392502   4.433004   5.221883
    14  H    4.869993   4.658503   4.065324   4.304387   5.675526
    15  H    4.761233   4.351757   5.322814   5.306794   6.002231
    16  Na   2.796903   2.461228   3.127728   2.717734   2.515410
                   11         12         13         14         15
    11  H    0.000000
    12  H    1.515162   0.000000
    13  O    5.868122   5.493079   0.000000
    14  H    6.371068   5.998743   0.958273   0.000000
    15  H    6.609403   6.212785   0.958470   1.514781   0.000000
    16  Na   3.296756   2.776491   2.781202   3.224075   3.600967
                   16
    16  Na   0.000000
 Stoichiometry    H10NaO5(1+)
 Framework group  C1[X(H10NaO5)]
 Deg. of freedom    42
 Full point group                 C1      NOp   1
 Largest Abelian subgroup         C1      NOp   1
 Largest concise Abelian subgroup C1      NOp   1
                         Standard orientation:                         
 ---------------------------------------------------------------------
 Center     Atomic      Atomic             Coordinates (Angstroms)
 Number     Number       Type             X           Y           Z
 ---------------------------------------------------------------------
      1          8           0        0.537854   -2.089814   -0.214454
      2          8           0       -0.185002    2.413042   -0.308095
      3          1           0       -0.139937   -2.758978   -0.317581
      4          8           0       -0.422883   -0.069108    1.978756
      5          1           0       -1.103234    0.052160    2.642476
      6          1           0        0.295053   -0.499609    2.444470
      7          1           0        0.955788   -2.032470   -1.075246
      8          1           0       -0.165659    3.181314   -0.880103
      9          1           0        0.186281    2.719546    0.520227
     10          8           0        2.587076    0.129147   -0.450162
     11          1           0        3.276590   -0.336403   -0.926455
     12          1           0        2.744768   -0.085924    0.470019
     13          8           0       -2.588059   -0.481643   -0.786275
     14          1           0       -3.059443    0.328015   -0.987618
     15          1           0       -3.278715   -1.129435   -0.637875
     16         11           0        0.077874    0.122617   -0.273679
 ---------------------------------------------------------------------
 Rotational constants (GHZ):           1.7061349           1.4002546           1.0938477
 Standard basis: Aug-CC-pVDZ (5D, 7F)
 There are   244 symmetry adapted cartesian basis functions of A   symmetry.
 There are   232 symmetry adapted basis functions of A   symmetry.
   232 basis functions,   406 primitive gaussians,   244 cartesian basis functions
    30 alpha electrons       30 beta electrons
       nuclear repulsion energy       300.1832205939 Hartrees.
 NAtoms=   16 NActive=   16 NUniq=   16 SFac= 1.00D+00 NAtFMM=   60 NAOKFM=F Big=F
 Integral buffers will be    131072 words long.
 Raffenetti 2 integral format.
 Two-electron integral symmetry is turned on.
 Nuclear repulsion after empirical dispersion term =      300.1746656905 Hartrees.
 One-electron integrals computed using PRISM.
 NBasis=   232 RedAO= T EigKep=  3.31D-04  NBF=   232
 NBsUse=   232 1.00D-06 EigRej= -1.00D+00 NBFU=   232
 Initial guess from the checkpoint file:  "sim002_type3_coord-5_3-1-1_10C_b1_id81771_step1460.chk"
 B after Tr=    -0.000000   -0.000000   -0.000000
         Rot=    0.999985    0.002586   -0.001526   -0.004516 Ang=   0.62 deg.
 ExpMin= 6.16D-03 ExpMax= 3.17D+04 ExpMxC= 1.08D+03 IAcc=3 IRadAn=         5 AccDes= 0.00D+00
 Harris functional with IExCor=  402 and IRadAn=       5 diagonalized for initial guess.
 HarFok:  IExCor=  402 AccDes= 0.00D+00 IRadAn=         5 IDoV= 1 UseB2=F ITyADJ=14
 ICtDFT=  3500011 ScaDFX=  1.000000  1.000000  1.000000  1.000000
 FoFCou: FMM=F IPFlag=           0 FMFlag=      100000 FMFlg1=           0
         NFxFlg=           0 DoJE=T BraDBF=F KetDBF=T FulRan=T
         wScrn=  0.000000 ICntrl=       500 IOpCl=  0 I1Cent=   200000004 NGrid=           0
         NMat0=    1 NMatS0=      1 NMatT0=    0 NMatD0=    1 NMtDS0=    0 NMtDT0=    0
 Petite list used in FoFCou.
 Requested convergence on RMS density matrix=1.00D-08 within 500 cycles.
 Requested convergence on MAX density matrix=1.00D-06.
 Requested convergence on             energy=1.00D-06.
 No special actions if energy rises.
 SCF Done:  E(RB3LYP) =  -544.442897013     A.U. after    8 cycles
            NFock=  8  Conv=0.88D-08     -V/T= 2.0055
 DoSCS=F DFT=T ScalE2(SS,OS)=  1.000000  1.000000
 Range of M.O.s used for correlation:     1   232
 NBasis=   232 NAE=    30 NBE=    30 NFC=     0 NFV=     0
 NROrb=    232 NOA=    30 NOB=    30 NVA=   202 NVB=   202

 **** Warning!!: The largest alpha MO coefficient is  0.11371587D+02

 Symmetrizing basis deriv contribution to polar:
 IMax=3 JMax=2 DiffMx= 0.00D+00
 G2DrvN: will do    17 centers at a time, making    1 passes.
 Calling FoFCou, ICntrl=  3107 FMM=F I1Cent=   0 AccDes= 1.00D-11.
 End of G2Drv F.D. properties file   721 does not exist.
 End of G2Drv F.D. properties file   722 does not exist.
 End of G2Drv F.D. properties file   788 does not exist.
          IDoAtm=1111111111111111
          Differentiating once with respect to electric field.
                with respect to dipole field.
          Differentiating once with respect to nuclear coordinates.
 Keep R1 ints in memory in canonical form, NReq=408195318.
          There are    51 degrees of freedom in the 1st order CPHF.  IDoFFX=6 NUNeed=     3.
     48 vectors produced by pass  0 Test12= 1.19D-14 1.96D-09 XBig12= 2.22D+01 1.22D+00.
 AX will form    48 AO Fock derivatives at one time.
     48 vectors produced by pass  1 Test12= 1.19D-14 1.96D-09 XBig12= 1.67D+00 2.39D-01.
     48 vectors produced by pass  2 Test12= 1.19D-14 1.96D-09 XBig12= 1.83D-02 1.83D-02.
     48 vectors produced by pass  3 Test12= 1.19D-14 1.96D-09 XBig12= 4.35D-05 8.27D-04.
     48 vectors produced by pass  4 Test12= 1.19D-14 1.96D-09 XBig12= 5.96D-08 2.42D-05.
     21 vectors produced by pass  5 Test12= 1.19D-14 1.96D-09 XBig12= 4.80D-11 6.13D-07.
      3 vectors produced by pass  6 Test12= 1.19D-14 1.96D-09 XBig12= 3.31D-14 2.41D-08.
 InvSVY:  IOpt=1 It=  1 EMax= 5.33D-15
 Solved reduced A of dimension   264 with    51 vectors.
 Isotropic polarizability for W=    0.000000       46.66 Bohr**3.
 End of Minotr F.D. properties file   721 does not exist.
 End of Minotr F.D. properties file   722 does not exist.
 End of Minotr F.D. properties file   788 does not exist.
 Calling FoFJK, ICntrl=    100127 FMM=F ISym2X=0 I1Cent= 0 IOpClX= 0 NMat=1 NMatS=1 NMatT=0.
 ***** Axes restored to original set *****
 -------------------------------------------------------------------
 Center     Atomic                   Forces (Hartrees/Bohr)
 Number     Number              X              Y              Z
 -------------------------------------------------------------------
      1        8           0.000275995    0.003206309    0.005983677
      2        8           0.001919942   -0.004380960   -0.007409612
      3        1           0.001555235   -0.008211692   -0.003813175
      4        8          -0.005671982    0.006046995   -0.000997504
      5        1          -0.000205824   -0.005847097    0.005037444
      6        1           0.008303774    0.001333333   -0.003320747
      7        1          -0.001239957    0.006099705   -0.010384112
      8        1          -0.007372467    0.002715726    0.001614414
      9        1           0.006022529    0.001681508    0.006876013
     10        8          -0.006978085   -0.010019133    0.004557541
     11        1          -0.001632544    0.005939217   -0.005143498
     12        1           0.009264794    0.002870330    0.000628488
     13        8           0.004023692    0.010998560   -0.001400625
     14        1          -0.005647451   -0.001094065    0.005717051
     15        1           0.001841011   -0.005749557   -0.003519996
     16       11          -0.004458663   -0.005589178    0.005574641
 -------------------------------------------------------------------
 Cartesian Forces:  Max     0.010998560 RMS     0.005364540

 GradGradGradGradGradGradGradGradGradGradGradGradGradGradGradGradGradGrad
 Berny optimization.
 Search for a local minimum.
 Step number   2 out of a maximum of  500
 All quantities printed in internal units (Hartrees-Bohrs-Radians)
 Second derivative matrix not updated -- analytic derivatives used.
 DE= -1.57D-03 DEPred=-1.58D-03 R= 9.96D-01
 TightC=F SS=  1.41D+00  RLast= 9.60D-02 DXNew= 1.6818D-01 2.8796D-01
 Trust test= 9.96D-01 RLast= 9.60D-02 DXMaxT set to 1.68D-01
 ITU=  1  0
 Linear search step of   0.188 exceeds DXMaxT=   0.168 but not scaled.
 Quintic linear search produced a step of  1.95983.
 B after Tr=     0.000000    0.000000    0.000000
         Rot=    1.000000   -0.000000   -0.000000   -0.000000 Ang=   0.00 deg.
 Variable       Old X    -DE/DX   Delta X   Delta X   Delta X     New X
                                 (Linear)    (Quad)   (Total)
    X1        1.88196   0.00028  -0.03878   0.00000  -0.03878   1.84318
    Y1       -0.76699   0.00321  -0.01323   0.00000  -0.01323  -0.78021
    Z1       -3.74543   0.00598   0.01486   0.00000   0.01486  -3.73058
    X2       -1.80749   0.00192   0.00414   0.00000   0.00414  -1.80335
    Y2        1.09174  -0.00438   0.00268   0.00000   0.00268   1.09442
    Z2        3.82003  -0.00741   0.00123   0.00000   0.00123   3.82126
    X3        1.75362   0.00156  -0.01251   0.00000  -0.01251   1.74111
    Y3       -2.35559  -0.00821   0.00105   0.00000   0.00105  -2.35455
    Z3       -4.60417  -0.00381  -0.02375   0.00000  -0.02375  -4.62793
    X4        3.52148  -0.00567   0.01528   0.00000   0.01528   3.53676
    Y4       -1.83581   0.00605   0.05848   0.00000   0.05848  -1.77733
    Z4        1.84247  -0.00100   0.03579   0.00000   0.03579   1.87827
    X5        4.11411  -0.00021  -0.01576   0.00000  -0.01576   4.09835
    Y5       -3.16583  -0.00585  -0.00934   0.00000  -0.00934  -3.17517
    Z5        2.91880   0.00504  -0.02029   0.00000  -0.02029   2.89851
    X6        5.02722   0.00830   0.03679   0.00000   0.03679   5.06401
    Y6       -1.05879   0.00133   0.00361   0.00000   0.00361  -1.05518
    Z6        1.20532  -0.00332   0.00810   0.00000   0.00810   1.21343
    X7        0.68008  -0.00124   0.06119   0.00000   0.06119   0.74128
    Y7        0.30319   0.00610   0.04718   0.00000   0.04718   0.35037
    Z7       -4.57715  -0.01038  -0.07082   0.00000  -0.07082  -4.64797
    X8       -3.26631  -0.00737  -0.01205   0.00000  -0.01205  -3.27836
    Y8        1.85530   0.00272  -0.01636   0.00000  -0.01636   1.83893
    Z8        4.57262   0.00161  -0.00190   0.00000  -0.00190   4.57072
    X9       -0.42282   0.00602  -0.00610   0.00000  -0.00610  -0.42892
    Y9        1.64294   0.00168  -0.01256   0.00000  -0.01256   1.63038
    Z9        4.84803   0.00688   0.03047   0.00000   0.03047   4.87851
   X10        1.23249  -0.00698   0.00744   0.00000   0.00744   1.23993
   Y10        4.36681  -0.01002  -0.05161   0.00000  -0.05161   4.31520
   Z10       -1.29596   0.00456  -0.01974   0.00000  -0.01974  -1.31570
   X11        1.19092  -0.00163  -0.01776   0.00000  -0.01776   1.17316
   Y11        5.41023   0.00594  -0.00662   0.00000  -0.00662   5.40361
   Z11       -2.77630  -0.00514   0.00668   0.00000   0.00668  -2.76962
   X12        2.99505   0.00926   0.01709   0.00000   0.01709   3.01214
   Y12        4.16063   0.00287   0.01093   0.00000   0.01093   4.17156
   Z12       -0.93736   0.00063  -0.00803   0.00000  -0.00803  -0.94538
   X13       -2.08984   0.00402   0.03239   0.00000   0.03239  -2.05744
   Y13       -4.85628   0.01100   0.01489   0.00000   0.01489  -4.84139
   Z13       -0.16775  -0.00140   0.03886   0.00000   0.03886  -0.12889
   X14       -3.26783  -0.00565  -0.01341   0.00000  -0.01341  -3.28125
   Y14       -5.04455  -0.00109   0.01078   0.00000   0.01078  -5.03376
   Z14        1.19466   0.00572   0.00498   0.00000   0.00498   1.19964
   X15       -1.82586   0.00184  -0.02431   0.00000  -0.02431  -1.85018
   Y15       -6.54311  -0.00575   0.01847   0.00000   0.01847  -6.52464
   Z15       -0.77234  -0.00352  -0.01461   0.00000  -0.01461  -0.78695
   X16       -0.01716  -0.00446  -0.03363   0.00000  -0.03363  -0.05079
   Y16       -0.02977  -0.00559  -0.05834   0.00000  -0.05834  -0.08811
   Z16        0.00927   0.00557   0.01817   0.00000   0.01817   0.02743
         Item               Value     Threshold  Converged?
 Maximum Force            0.010999     0.000450     NO 
 RMS     Force            0.005365     0.000300     NO 
 Maximum Displacement     0.070824     0.001800     NO 
 RMS     Displacement     0.027153     0.001200     NO 
 Predicted change in Energy=-2.870723D-03
 GradGradGradGradGradGradGradGradGradGradGradGradGradGradGradGradGradGrad

                          Input orientation:                          
 ---------------------------------------------------------------------
 Center     Atomic      Atomic             Coordinates (Angstroms)
 Number     Number       Type             X           Y           Z
 ---------------------------------------------------------------------
      1          8           0        0.975366   -0.412871   -1.974136
      2          8           0       -0.954293    0.579141    2.022126
      3          1           0        0.921355   -1.245972   -2.448994
      4          8           0        1.871575   -0.940522    0.993935
      5          1           0        2.168751   -1.680226    1.533823
      6          1           0        2.679758   -0.558378    0.642117
      7          1           0        0.392266    0.185407   -2.459602
      8          1           0       -1.734833    0.973121    2.418721
      9          1           0       -0.226972    0.862762    2.581595
     10          8           0        0.656143    2.283506   -0.696240
     11          1           0        0.620809    2.859469   -1.465618
     12          1           0        1.593958    2.207494   -0.500275
     13          8           0       -1.088752   -2.561953   -0.068206
     14          1           0       -1.736361   -2.663753    0.634821
     15          1           0       -0.979072   -3.452688   -0.416435
     16         11           0       -0.026879   -0.046626    0.014518
 ---------------------------------------------------------------------
                    Distance matrix (angstroms):
                    1          2          3          4          5
     1  O    0.000000
     2  O    4.547284   0.000000
     3  H    0.960450   5.180735   0.000000
     4  O    3.145005   3.369285   3.584687   0.000000
     5  H    3.916138   3.885433   4.196118   0.962785   0.000000
     6  H    3.125845   4.050273   3.622118   0.960714   1.521450
     7  H    0.966239   4.696183   1.526071   3.922115   4.752255
     8  H    5.344470   0.960079   5.972802   4.324144   4.802215
     9  H    4.881347   0.960439   5.574248   3.190046   3.647479
    10  O    3.000896   3.589969   3.949646   3.837750   4.792947
    11  H    3.330542   4.454796   4.232258   4.696142   5.656996
    12  H    3.069403   3.937972   4.021980   3.495674   4.425190
    13  O    3.537189   3.775453   3.382379   3.538463   3.735675
    14  H    4.384814   3.612839   4.310855   4.014435   4.126189
    15  H    3.935321   4.711989   3.551410   4.052938   4.105352
    16  Na   2.256851   2.298298   2.899391   2.315693   3.130132
                    6          7          8          9         10
     6  H    0.000000
     7  H    3.925111   0.000000
     8  H    4.999043   5.379877   0.000000
     9  H    3.772307   5.124054   1.520642   0.000000
    10  O    3.736646   2.753380   4.139669   3.680028   0.000000
    11  H    4.512594   2.861965   4.918887   4.591896   0.961730
    12  H    3.183405   3.061350   4.596201   3.823874   0.961081
    13  O    4.326724   3.931942   4.370238   4.415064   5.188214
    14  H    4.892317   4.714257   4.050822   4.301685   5.654306
    15  H    4.783785   4.392133   5.310092   5.308197   5.971277
    16  Na   2.825182   2.520077   3.120447   2.730735   2.530062
                   11         12         13         14         15
    11  H    0.000000
    12  H    1.517886   0.000000
    13  O    5.853818   5.489193   0.000000
    14  H    6.361924   6.009036   0.961253   0.000000
    15  H    6.595736   6.218132   0.962654   1.516920   0.000000
    16  Na   3.325010   2.823682   2.731536   3.186920   3.562815
                   16
    16  Na   0.000000
 Stoichiometry    H10NaO5(1+)
 Framework group  C1[X(H10NaO5)]
 Deg. of freedom    42
 Full point group                 C1      NOp   1
 Largest Abelian subgroup         C1      NOp   1
 Largest concise Abelian subgroup C1      NOp   1
                         Standard orientation:                         
 ---------------------------------------------------------------------
 Center     Atomic      Atomic             Coordinates (Angstroms)
 Number     Number       Type             X           Y           Z
 ---------------------------------------------------------------------
      1          8           0        0.572962   -2.072505   -0.210764
      2          8           0       -0.229220    2.401859   -0.330623
      3          1           0       -0.073622   -2.776474   -0.304681
      4          8           0       -0.386412   -0.038189    1.987466
      5          1           0       -1.098312    0.041446    2.630748
      6          1           0        0.322715   -0.476304    2.465133
      7          1           0        1.046809   -2.059580   -1.052738
      8          1           0       -0.238788    3.162648   -0.916165
      9          1           0        0.123523    2.736188    0.497771
     10          8           0        2.568449    0.155580   -0.453758
     11          1           0        3.280414   -0.273954   -0.937009
     12          1           0        2.762168   -0.031253    0.468871
     13          8           0       -2.564853   -0.533691   -0.756543
     14          1           0       -3.059150    0.255975   -0.993410
     15          1           0       -3.242118   -1.207797   -0.639941
     16         11           0        0.044451    0.120425   -0.282254
 ---------------------------------------------------------------------
 Rotational constants (GHZ):           1.7096803           1.4111432           1.1031426
 Standard basis: Aug-CC-pVDZ (5D, 7F)
 There are   244 symmetry adapted cartesian basis functions of A   symmetry.
 There are   232 symmetry adapted basis functions of A   symmetry.
   232 basis functions,   406 primitive gaussians,   244 cartesian basis functions
    30 alpha electrons       30 beta electrons
       nuclear repulsion energy       300.5748239363 Hartrees.
 NAtoms=   16 NActive=   16 NUniq=   16 SFac= 1.00D+00 NAtFMM=   60 NAOKFM=F Big=F
 Integral buffers will be    131072 words long.
 Raffenetti 2 integral format.
 Two-electron integral symmetry is turned on.
 Nuclear repulsion after empirical dispersion term =      300.5662915366 Hartrees.
 One-electron integrals computed using PRISM.
 NBasis=   232 RedAO= T EigKep=  3.17D-04  NBF=   232
 NBsUse=   232 1.00D-06 EigRej= -1.00D+00 NBFU=   232
 Initial guess from the checkpoint file:  "sim002_type3_coord-5_3-1-1_10C_b1_id81771_step1460.chk"
 B after Tr=     0.000000    0.000000    0.000000
         Rot=    0.999939    0.005223   -0.003048   -0.009195 Ang=   1.26 deg.
 ExpMin= 6.16D-03 ExpMax= 3.17D+04 ExpMxC= 1.08D+03 IAcc=3 IRadAn=         5 AccDes= 0.00D+00
 Harris functional with IExCor=  402 and IRadAn=       5 diagonalized for initial guess.
 HarFok:  IExCor=  402 AccDes= 0.00D+00 IRadAn=         5 IDoV= 1 UseB2=F ITyADJ=14
 ICtDFT=  3500011 ScaDFX=  1.000000  1.000000  1.000000  1.000000
 FoFCou: FMM=F IPFlag=           0 FMFlag=      100000 FMFlg1=           0
         NFxFlg=           0 DoJE=T BraDBF=F KetDBF=T FulRan=T
         wScrn=  0.000000 ICntrl=       500 IOpCl=  0 I1Cent=   200000004 NGrid=           0
         NMat0=    1 NMatS0=      1 NMatT0=    0 NMatD0=    1 NMtDS0=    0 NMtDT0=    0
 Petite list used in FoFCou.
 Requested convergence on RMS density matrix=1.00D-08 within 500 cycles.
 Requested convergence on MAX density matrix=1.00D-06.
 Requested convergence on             energy=1.00D-06.
 No special actions if energy rises.
 SCF Done:  E(RB3LYP) =  -544.445697611     A.U. after    9 cycles
            NFock=  9  Conv=0.17D-08     -V/T= 2.0057
 DoSCS=F DFT=T ScalE2(SS,OS)=  1.000000  1.000000
 Range of M.O.s used for correlation:     1   232
 NBasis=   232 NAE=    30 NBE=    30 NFC=     0 NFV=     0
 NROrb=    232 NOA=    30 NOB=    30 NVA=   202 NVB=   202

 **** Warning!!: The largest alpha MO coefficient is  0.12002047D+02

 Symmetrizing basis deriv contribution to polar:
 IMax=3 JMax=2 DiffMx= 0.00D+00
 G2DrvN: will do    17 centers at a time, making    1 passes.
 Calling FoFCou, ICntrl=  3107 FMM=F I1Cent=   0 AccDes= 1.00D-11.
 End of G2Drv F.D. properties file   721 does not exist.
 End of G2Drv F.D. properties file   722 does not exist.
 End of G2Drv F.D. properties file   788 does not exist.
          IDoAtm=1111111111111111
          Differentiating once with respect to electric field.
                with respect to dipole field.
          Differentiating once with respect to nuclear coordinates.
 Keep R1 ints in memory in canonical form, NReq=408195318.
          There are    51 degrees of freedom in the 1st order CPHF.  IDoFFX=6 NUNeed=     3.
     48 vectors produced by pass  0 Test12= 1.19D-14 1.96D-09 XBig12= 2.23D+01 9.41D-01.
 AX will form    48 AO Fock derivatives at one time.
     48 vectors produced by pass  1 Test12= 1.19D-14 1.96D-09 XBig12= 1.68D+00 2.21D-01.
     48 vectors produced by pass  2 Test12= 1.19D-14 1.96D-09 XBig12= 1.88D-02 2.25D-02.
     48 vectors produced by pass  3 Test12= 1.19D-14 1.96D-09 XBig12= 4.62D-05 7.04D-04.
     48 vectors produced by pass  4 Test12= 1.19D-14 1.96D-09 XBig12= 6.00D-08 2.72D-05.
     20 vectors produced by pass  5 Test12= 1.19D-14 1.96D-09 XBig12= 4.55D-11 6.00D-07.
      3 vectors produced by pass  6 Test12= 1.19D-14 1.96D-09 XBig12= 3.27D-14 1.76D-08.
 InvSVY:  IOpt=1 It=  1 EMax= 2.66D-15
 Solved reduced A of dimension   263 with    51 vectors.
 Isotropic polarizability for W=    0.000000       46.85 Bohr**3.
 End of Minotr F.D. properties file   721 does not exist.
 End of Minotr F.D. properties file   722 does not exist.
 End of Minotr F.D. properties file   788 does not exist.
 Calling FoFJK, ICntrl=    100127 FMM=F ISym2X=0 I1Cent= 0 IOpClX= 0 NMat=1 NMatS=1 NMatT=0.
 ***** Axes restored to original set *****
 -------------------------------------------------------------------
 Center     Atomic                   Forces (Hartrees/Bohr)
 Number     Number              X              Y              Z
 -------------------------------------------------------------------
      1        8          -0.004331512    0.005171596    0.000580304
      2        8           0.001616024   -0.002916652   -0.004976662
      3        1           0.001451635   -0.005731883   -0.002822551
      4        8          -0.001923344    0.003387645    0.000877093
      5        1          -0.001575860   -0.002329491    0.002152200
      6        1           0.005624759    0.000306856   -0.002235357
      7        1           0.003798073    0.001234975   -0.005395156
      8        1          -0.005360013    0.001881405    0.000897111
      9        1           0.004077276    0.001003556    0.005296879
     10        8          -0.003808573   -0.007783625    0.002230401
     11        1          -0.001842454    0.004142590   -0.002364961
     12        1           0.005925207    0.002703358    0.000349188
     13        8           0.002405619    0.006318057   -0.000264722
     14        1          -0.003758104   -0.000583100    0.003639022
     15        1           0.001436875   -0.001715001   -0.002407637
     16       11          -0.003735608   -0.005090286    0.004444849
 -------------------------------------------------------------------
 Cartesian Forces:  Max     0.007783625 RMS     0.003554199

 GradGradGradGradGradGradGradGradGradGradGradGradGradGradGradGradGradGrad
 Berny optimization.
 Search for a local minimum.
 Step number   3 out of a maximum of  500
 All quantities printed in internal units (Hartrees-Bohrs-Radians)
 Second derivative matrix not updated -- analytic derivatives used.
 ITU=  0  1  0
 Linear search step of   0.263 exceeds DXMaxT=   0.168 but not scaled.
 Quintic linear search produced a step of  1.39928.
 B after Tr=     0.000000    0.000000    0.000000
         Rot=    1.000000    0.000000   -0.000000    0.000000 Ang=   0.00 deg.
 Variable       Old X    -DE/DX   Delta X   Delta X   Delta X     New X
                                 (Linear)    (Quad)   (Total)
    X1        1.84318  -0.00433  -0.05427   0.00000  -0.05427   1.78891
    Y1       -0.78021   0.00517  -0.01851   0.00000  -0.01851  -0.79872
    Z1       -3.73058   0.00058   0.02079   0.00000   0.02079  -3.70979
    X2       -1.80335   0.00162   0.00579   0.00000   0.00579  -1.79756
    Y2        1.09442  -0.00292   0.00375   0.00000   0.00375   1.09817
    Z2        3.82126  -0.00498   0.00173   0.00000   0.00173   3.82299
    X3        1.74111   0.00145  -0.01750   0.00000  -0.01750   1.72361
    Y3       -2.35455  -0.00573   0.00147   0.00000   0.00147  -2.35308
    Z3       -4.62793  -0.00282  -0.03324   0.00000  -0.03324  -4.66117
    X4        3.53676  -0.00192   0.02139   0.00000   0.02139   3.55815
    Y4       -1.77733   0.00339   0.08183   0.00000   0.08183  -1.69550
    Z4        1.87827   0.00088   0.05008   0.00000   0.05008   1.92835
    X5        4.09835  -0.00158  -0.02206   0.00000  -0.02206   4.07629
    Y5       -3.17517  -0.00233  -0.01307   0.00000  -0.01307  -3.18824
    Z5        2.89851   0.00215  -0.02839   0.00000  -0.02839   2.87011
    X6        5.06401   0.00562   0.05147   0.00000   0.05147   5.11548
    Y6       -1.05518   0.00031   0.00505   0.00000   0.00505  -1.05014
    Z6        1.21343  -0.00224   0.01134   0.00000   0.01134   1.22477
    X7        0.74128   0.00380   0.08563   0.00000   0.08563   0.82690
    Y7        0.35037   0.00123   0.06602   0.00000   0.06602   0.41639
    Z7       -4.64797  -0.00540  -0.09910   0.00000  -0.09910  -4.74708
    X8       -3.27836  -0.00536  -0.01687   0.00000  -0.01687  -3.29523
    Y8        1.83893   0.00188  -0.02290   0.00000  -0.02290   1.81603
    Z8        4.57072   0.00090  -0.00266   0.00000  -0.00266   4.56806
    X9       -0.42892   0.00408  -0.00853   0.00000  -0.00853  -0.43745
    Y9        1.63038   0.00100  -0.01758   0.00000  -0.01758   1.61281
    Z9        4.87851   0.00530   0.04264   0.00000   0.04264   4.92115
   X10        1.23993  -0.00381   0.01041   0.00000   0.01041   1.25034
   Y10        4.31520  -0.00778  -0.07221   0.00000  -0.07221   4.24299
   Z10       -1.31570   0.00223  -0.02763   0.00000  -0.02763  -1.34333
   X11        1.17316  -0.00184  -0.02485   0.00000  -0.02485   1.14831
   Y11        5.40361   0.00414  -0.00926   0.00000  -0.00926   5.39435
   Z11       -2.76962  -0.00236   0.00935   0.00000   0.00935  -2.76026
   X12        3.01214   0.00593   0.02391   0.00000   0.02391   3.03606
   Y12        4.17156   0.00270   0.01529   0.00000   0.01529   4.18685
   Z12       -0.94538   0.00035  -0.01123   0.00000  -0.01123  -0.95661
   X13       -2.05744   0.00241   0.04533   0.00000   0.04533  -2.01212
   Y13       -4.84139   0.00632   0.02083   0.00000   0.02083  -4.82056
   Z13       -0.12889  -0.00026   0.05437   0.00000   0.05437  -0.07452
   X14       -3.28125  -0.00376  -0.01877   0.00000  -0.01877  -3.30002
   Y14       -5.03376  -0.00058   0.01509   0.00000   0.01509  -5.01868
   Z14        1.19964   0.00364   0.00697   0.00000   0.00697   1.20661
   X15       -1.85018   0.00144  -0.03402   0.00000  -0.03402  -1.88420
   Y15       -6.52464  -0.00172   0.02585   0.00000   0.02585  -6.49879
   Z15       -0.78695  -0.00241  -0.02044   0.00000  -0.02044  -0.80739
   X16       -0.05079  -0.00374  -0.04706   0.00000  -0.04706  -0.09785
   Y16       -0.08811  -0.00509  -0.08164   0.00000  -0.08164  -0.16975
   Z16        0.02743   0.00444   0.02542   0.00000   0.02542   0.05285
         Item               Value     Threshold  Converged?
 Maximum Force            0.007784     0.000450     NO 
 RMS     Force            0.003554     0.000300     NO 
 Maximum Displacement     0.099102     0.001800     NO 
 RMS     Displacement     0.037994     0.001200     NO 
 Predicted change in Energy=-2.765691D-03
 GradGradGradGradGradGradGradGradGradGradGradGradGradGradGradGradGradGrad

                          Input orientation:                          
 ---------------------------------------------------------------------
 Center     Atomic      Atomic             Coordinates (Angstroms)
 Number     Number       Type             X           Y           Z
 ---------------------------------------------------------------------
      1          8           0        0.946650   -0.422665   -1.963135
      2          8           0       -0.951230    0.581125    2.023040
      3          1           0        0.912095   -1.245196   -2.466583
      4          8           0        1.882892   -0.897218    1.020439
      5          1           0        2.157078   -1.687144    1.518797
      6          1           0        2.706997   -0.555708    0.648118
      7          1           0        0.437579    0.220343   -2.512044
      8          1           0       -1.743759    0.961004    2.417314
      9          1           0       -0.231486    0.853462    2.604160
     10          8           0        0.661649    2.245293   -0.710860
     11          1           0        0.607661    2.854567   -1.460669
     12          1           0        1.606613    2.215585   -0.506218
     13          8           0       -1.064767   -2.550930   -0.039435
     14          1           0       -1.746294   -2.655769    0.638510
     15          1           0       -0.997075   -3.439011   -0.427253
     16         11           0       -0.051782   -0.089827    0.027968
 ---------------------------------------------------------------------
                    Distance matrix (angstroms):
                    1          2          3          4          5
     1  O    0.000000
     2  O    4.527597   0.000000
     3  H    0.964992   5.192701   0.000000
     4  O    3.162825   3.350067   3.636325   0.000000
     5  H    3.897165   3.880835   4.198638   0.973407   0.000000
     6  H    3.152010   4.070064   3.660387   0.966644   1.529914
     7  H    0.986871   4.756673   1.541115   3.976972   4.779421
     8  H    5.323643   0.963256   5.981081   4.307765   4.799640
     9  H    4.886379   0.964313   5.605763   3.169171   3.652113
    10  O    2.960984   3.583998   3.915201   3.790014   4.761485
    11  H    3.332812   4.442399   4.232328   4.675254   5.648455
    12  H    3.085211   3.951097   4.037622   3.478011   4.431139
    13  O    3.503703   3.751861   3.391751   3.542144   3.681644
    14  H    4.359731   3.609229   4.324159   4.050847   4.116972
    15  H    3.903248   4.708241   3.551989   4.104964   4.099370
    16  Na   2.252142   2.288994   2.913198   2.319449   3.106937
                    6          7          8          9         10
     6  H    0.000000
     7  H    3.967259   0.000000
     8  H    5.023912   5.441083   0.000000
     9  H    3.800861   5.198465   1.527562   0.000000
    10  O    3.725034   2.719356   4.149802   3.704625   0.000000
    11  H    4.525944   2.841383   4.914622   4.607758   0.967648
    12  H    3.197406   3.061204   4.620174   3.861146   0.967324
    13  O    4.322018   4.006344   4.339392   4.390084   5.141506
    14  H    4.923632   4.792422   4.030533   4.298037   5.624891
    15  H    4.815601   4.449209   5.292374   5.310453   5.928163
    16  Na   2.865745   2.605253   3.110627   2.749337   2.551007
                   11         12         13         14         15
    11  H    0.000000
    12  H    1.522228   0.000000
    13  O    5.834066   5.483961   0.000000
    14  H    6.349131   6.023494   0.966995   0.000000
    15  H    6.576645   6.225744   0.971428   1.520081   0.000000
    16  Na   3.364574   2.889732   2.662276   3.134995   3.509679
                   16
    16  Na   0.000000
 Stoichiometry    H10NaO5(1+)
 Framework group  C1[X(H10NaO5)]
 Deg. of freedom    42
 Full point group                 C1      NOp   1
 Largest Abelian subgroup         C1      NOp   1
 Largest concise Abelian subgroup C1      NOp   1
                         Standard orientation:                         
 ---------------------------------------------------------------------
 Center     Atomic      Atomic             Coordinates (Angstroms)
 Number     Number       Type             X           Y           Z
 ---------------------------------------------------------------------
      1          8           0        0.624275   -2.046694   -0.205176
      2          8           0       -0.294404    2.383912   -0.362965
      3          1           0        0.024454   -2.798403   -0.284920
      4          8           0       -0.336671    0.008279    1.998715
      5          1           0       -1.089938    0.025993    2.614991
      6          1           0        0.362304   -0.439771    2.493775
      7          1           0        1.179447   -2.090700   -1.019891
      8          1           0       -0.345443    3.132072   -0.967543
      9          1           0        0.030655    2.757010    0.464702
     10          8           0        2.541898    0.195053   -0.459569
     11          1           0        3.283438   -0.182221   -0.953661
     12          1           0        2.784906    0.050990    0.465584
     13          8           0       -2.530056   -0.608673   -0.713336
     14          1           0       -3.056827    0.150031   -0.999621
     15          1           0       -3.186227   -1.321234   -0.640065
     16         11           0       -0.002465    0.114657   -0.294063
 ---------------------------------------------------------------------
 Rotational constants (GHZ):           1.7145586           1.4255632           1.1157385
 Standard basis: Aug-CC-pVDZ (5D, 7F)
 There are   244 symmetry adapted cartesian basis functions of A   symmetry.
 There are   232 symmetry adapted basis functions of A   symmetry.
   232 basis functions,   406 primitive gaussians,   244 cartesian basis functions
    30 alpha electrons       30 beta electrons
       nuclear repulsion energy       300.9816185723 Hartrees.
 NAtoms=   16 NActive=   16 NUniq=   16 SFac= 1.00D+00 NAtFMM=   60 NAOKFM=F Big=F
 Integral buffers will be    131072 words long.
 Raffenetti 2 integral format.
 Two-electron integral symmetry is turned on.
 Nuclear repulsion after empirical dispersion term =      300.9731128988 Hartrees.
 One-electron integrals computed using PRISM.
 NBasis=   232 RedAO= T EigKep=  2.99D-04  NBF=   232
 NBsUse=   232 1.00D-06 EigRej= -1.00D+00 NBFU=   232
 Initial guess from the checkpoint file:  "sim002_type3_coord-5_3-1-1_10C_b1_id81771_step1460.chk"
 B after Tr=    -0.000000   -0.000000   -0.000000
         Rot=    0.999868    0.007676   -0.004386   -0.013597 Ang=   1.86 deg.
 ExpMin= 6.16D-03 ExpMax= 3.17D+04 ExpMxC= 1.08D+03 IAcc=3 IRadAn=         5 AccDes= 0.00D+00
 Harris functional with IExCor=  402 and IRadAn=       5 diagonalized for initial guess.
 HarFok:  IExCor=  402 AccDes= 0.00D+00 IRadAn=         5 IDoV= 1 UseB2=F ITyADJ=14
 ICtDFT=  3500011 ScaDFX=  1.000000  1.000000  1.000000  1.000000
 FoFCou: FMM=F IPFlag=           0 FMFlag=      100000 FMFlg1=           0
         NFxFlg=           0 DoJE=T BraDBF=F KetDBF=T FulRan=T
         wScrn=  0.000000 ICntrl=       500 IOpCl=  0 I1Cent=   200000004 NGrid=           0
         NMat0=    1 NMatS0=      1 NMatT0=    0 NMatD0=    1 NMtDS0=    0 NMtDT0=    0
 Petite list used in FoFCou.
 Requested convergence on RMS density matrix=1.00D-08 within 500 cycles.
 Requested convergence on MAX density matrix=1.00D-06.
 Requested convergence on             energy=1.00D-06.
 No special actions if energy rises.
 SCF Done:  E(RB3LYP) =  -544.448168528     A.U. after    9 cycles
            NFock=  9  Conv=0.28D-08     -V/T= 2.0059
 DoSCS=F DFT=T ScalE2(SS,OS)=  1.000000  1.000000
 Range of M.O.s used for correlation:     1   232
 NBasis=   232 NAE=    30 NBE=    30 NFC=     0 NFV=     0
 NROrb=    232 NOA=    30 NOB=    30 NVA=   202 NVB=   202

 **** Warning!!: The largest alpha MO coefficient is  0.13123048D+02

 Symmetrizing basis deriv contribution to polar:
 IMax=3 JMax=2 DiffMx= 0.00D+00
 G2DrvN: will do    17 centers at a time, making    1 passes.
 Calling FoFCou, ICntrl=  3107 FMM=F I1Cent=   0 AccDes= 1.00D-11.
 End of G2Drv F.D. properties file   721 does not exist.
 End of G2Drv F.D. properties file   722 does not exist.
 End of G2Drv F.D. properties file   788 does not exist.
          IDoAtm=1111111111111111
          Differentiating once with respect to electric field.
                with respect to dipole field.
          Differentiating once with respect to nuclear coordinates.
 Keep R1 ints in memory in canonical form, NReq=408195318.
          There are    51 degrees of freedom in the 1st order CPHF.  IDoFFX=6 NUNeed=     3.
     48 vectors produced by pass  0 Test12= 1.19D-14 1.96D-09 XBig12= 2.27D+01 9.21D-01.
 AX will form    48 AO Fock derivatives at one time.
     48 vectors produced by pass  1 Test12= 1.19D-14 1.96D-09 XBig12= 1.75D+00 2.13D-01.
     48 vectors produced by pass  2 Test12= 1.19D-14 1.96D-09 XBig12= 2.03D-02 2.65D-02.
     48 vectors produced by pass  3 Test12= 1.19D-14 1.96D-09 XBig12= 5.37D-05 8.54D-04.
     48 vectors produced by pass  4 Test12= 1.19D-14 1.96D-09 XBig12= 7.01D-08 2.94D-05.
     20 vectors produced by pass  5 Test12= 1.19D-14 1.96D-09 XBig12= 5.09D-11 5.74D-07.
      3 vectors produced by pass  6 Test12= 1.19D-14 1.96D-09 XBig12= 3.64D-14 1.79D-08.
 InvSVY:  IOpt=1 It=  1 EMax= 3.55D-15
 Solved reduced A of dimension   263 with    51 vectors.
 Isotropic polarizability for W=    0.000000       47.29 Bohr**3.
 End of Minotr F.D. properties file   721 does not exist.
 End of Minotr F.D. properties file   722 does not exist.
 End of Minotr F.D. properties file   788 does not exist.
 Calling FoFJK, ICntrl=    100127 FMM=F ISym2X=0 I1Cent= 0 IOpClX= 0 NMat=1 NMatS=1 NMatT=0.
 ***** Axes restored to original set *****
 -------------------------------------------------------------------
 Center     Atomic                   Forces (Hartrees/Bohr)
 Number     Number              X              Y              Z
 -------------------------------------------------------------------
      1        8          -0.013443626    0.012938078   -0.013649607
      2        8           0.001281449   -0.000756314   -0.001101523
      3        1           0.001531779   -0.001955229   -0.000549432
      4        8           0.005930095   -0.003544923    0.004048989
      5        1          -0.004467854    0.005892656   -0.003044138
      6        1           0.000198512   -0.001217967   -0.000109775
      7        1           0.013222893   -0.011057011    0.007216387
      8        1          -0.002335611    0.000695440   -0.000179479
      9        1           0.001066642   -0.000020794    0.002682641
     10        8           0.002371175   -0.003040838   -0.001595598
     11        1          -0.002119814    0.000503454    0.002375269
     12        1          -0.000429942    0.002095202   -0.000330686
     13        8          -0.001559889   -0.002945233    0.000666331
     14        1           0.000072865    0.000600656    0.000185577
     15        1           0.001411494    0.006169532    0.000331070
     16       11          -0.002730169   -0.004356711    0.003053975
 -------------------------------------------------------------------
 Cartesian Forces:  Max     0.013649607 RMS     0.004911297

 GradGradGradGradGradGradGradGradGradGradGradGradGradGradGradGradGradGrad
 Berny optimization.
 Search for a local minimum.
 Step number   4 out of a maximum of  500
 All quantities printed in internal units (Hartrees-Bohrs-Radians)
 Second derivative matrix not updated -- analytic derivatives used.
 ITU=  0  0  1  0
     Eigenvalues ---   -0.00178  -0.00131  -0.00086  -0.00041  -0.00025
     Eigenvalues ---    0.00001   0.00025   0.00045   0.00090   0.00115
[...]
     1          1.51403766          5.81813726         -2.15351673
     8          2.47978818         -3.93189221         -0.21750588
     1          2.53980959         -4.24020250         -2.02113750
     1          3.70902124         -5.05051848          0.53275275
     1          1.87042229          5.40605292          0.71028830
     1         -4.50425421         -2.43038840          0.58072794
     1         -2.00353555         -3.93979661          0.53113694
     8          1.77958958          1.84326260          4.00077090
     1          0.52776228          2.04577504          5.31504218
     1          3.36005468          1.64957842          4.89521127
     8          0.26955510         -1.42732938         -4.43704268
     1         -1.45941942         -2.01557728         -4.33371904
     1          0.56298242         -1.02933442         -6.19282921
    11          0.87409947          0.29813796         -0.22069828

 Electric dipole moment (dipole orientation):
 (Debye = 10**-18 statcoulomb cm , SI units = C m)
                  (au)            (Debye)         (10**-30 SI)
   Tot        0.351204D+00      0.892672D+00      0.297763D+01
   x          0.000000D+00      0.000000D+00      0.000000D+00
   y          0.000000D+00      0.000000D+00      0.000000D+00
   z          0.351204D+00      0.892672D+00      0.297763D+01

 Dipole polarizability, Alpha (dipole orientation).
 (esu units = cm**3 , SI units = C**2 m**2 J**-1)
 Alpha(0;0):
               (au)            (10**-24 esu)      (10**-40 SI)
   iso        0.473561D+02      0.701745D+01      0.780796D+01
   aniso      0.325212D+01      0.481915D+00      0.536203D+00
   xx         0.465406D+02      0.689660D+01      0.767350D+01
   yx        -0.379004D+00     -0.561627D-01     -0.624894D-01
   yy         0.464921D+02      0.688942D+01      0.766552D+01
   zx         0.196360D+00      0.290976D-01      0.323754D-01
   zy        -0.110783D+01     -0.164163D+00     -0.182656D+00
   zz         0.490355D+02      0.726631D+01      0.808486D+01

 ----------------------------------------------------------------------

 Test job not archived.
 1\1\GINC-N681\Freq\RB3LYP\Aug-CC-pVDZ\H10Na1O5(1+)\HNR2\18-Jul-2022\0\
 \#N Geom=AllCheck Guess=TCheck SCRF=Check Test GenChk RB3LYP/Aug-CC-pV
 DZ Freq\\MD frame sim002_type3_coord-5_3-1-1_10C_b1_id81771_step1460\\
 1,1\O,0.0657868204,-0.2334031842,-2.5588568561\O,-1.0759364642,0.15803
 54299,1.5840890153\H,-0.2670517569,-0.7866026865,-3.2756204001\O,1.680
 5332067,-0.7480323509,1.6372767293\H,1.4950630948,-1.6972333728,1.6938
 664575\H,2.5319644758,-0.6128530919,2.0708083406\H,0.361879452,0.58869
 59223,-2.9710905857\H,-1.8506146782,0.6423056809,1.8953839398\H,-0.433
 7294964,0.1821131055,2.308330811\O,1.2162291912,1.968725327,-0.9825240
 744\H,0.755815616,2.8069136659,-0.8430088694\H,2.1482129165,2.21229501
 17,-1.0605576922\O,-0.3137373063,-2.4067117627,0.4616996605\H,-1.08322
 03863,-2.1916879897,1.0081921009\H,-0.4636659733,-3.3004759264,0.12937
 15483\Na,0.3652912883,-0.1941737782,-0.2852101254\\Version=ES64L-G16Re
 vB.01\State=1-A\HF=-544.4645742\RMSD=1.039e-09\RMSF=2.106e-06\ZeroPoin
 t=0.1206066\Thermal=0.1376295\Dipole=0.0931207,0.3369554,0.0336766\Dip
 oleDeriv=-0.5985751,0.0049311,-0.0059688,0.0042178,-0.5763444,-0.04297
 33,-0.0055274,-0.0390268,-0.5383029,-0.6081946,0.0037743,0.0477193,-0.
 0072065,-0.6309519,0.0487374,0.0273414,0.0605285,-0.494841,0.3301922,-
 0.0121535,-0.0159368,-0.0122545,0.3105226,-0.0054347,-0.0142688,-0.002
 8748,0.2419885,-0.6171548,-0.0329029,0.020315,-0.0616572,-0.5174719,-0
 .0452416,0.0247993,-0.0340111,-0.6197262,0.3696279,0.0634882,0.0428381
 ,0.0785783,0.2733153,0.0565248,0.0427819,0.0546264,0.3121473,0.2676405
 ,0.024173,-0.0338019,0.0283956,0.2857508,0.0145036,-0.0325117,0.012763
 ,0.3165633,0.3156097,0.0121301,0.0266517,0.0123133,0.3117619,0.0749489
 ,0.0260034,0.0716055,0.2769348,0.3053533,0.0206605,0.0091467,0.0232683
 ,0.3016697,-0.0422517,0.0131958,-0.0431505,0.2666465,0.3891373,-0.0451
 465,-0.0330768,-0.0352228,0.3095362,-0.0129536,-0.0216859,-0.0201323,0
 .236941,-0.5010834,0.0001955,-0.0062723,0.0015053,-0.5026356,0.0296645
 ,-0.0083121,0.0277652,-0.6445616,0.2934684,-0.0079991,-0.0005038,-0.01
 20673,0.2396984,-0.0176975,-0.0027717,-0.0162564,0.3306908,0.2741408,-
 0.0310944,-0.0016451,-0.028366,0.2577572,-0.0108925,0.0021216,-0.01049
 02,0.3310797,-0.5094397,0.041576,-0.0584956,0.0236789,-0.6067428,0.003
 6951,-0.071145,-0.0109959,-0.6147649,0.2438582,-0.0376968,0.0150993,-0
 .0251006,0.3863594,0.0369795,0.022299,0.0419921,0.2965404,0.2689672,-0
 .0457829,0.0071264,-0.0389364,0.2748237,-0.0132859,0.0091083,-0.013592
 1,0.3285434,0.7764523,0.0418474,-0.0131952,0.0488538,0.8829514,-0.0743
 231,-0.0114281,-0.0787505,0.9741207\Polar=47.1118449,0.9232355,48.4364
 09,0.6799145,1.117073,46.519951\Quadrupole=-4.7118163,2.6854735,2.0263
 428,3.6346183,-0.3993162,-2.7583525\PG=C01 [X(H10Na1O5)]\NImag=0\\0.12
 187096,0.24457181,0.57129842,0.07359870,0.02559274,0.47542885,0.000664
 46,0.00012321,0.00026630,0.59043154,0.00003004,0.00070162,0.00001842,-
 0.21339665,0.15860054,0.00031675,-0.00031267,-0.00062502,0.10576306,0.
 12041994,0.40977006,-0.06588428,-0.11056737,-0.11565301,-0.00017012,-0
 .00004464,-0.00000613,0.06969608,-0.10390227,-0.19174885,-0.17265172,-
 0.00004967,-0.00016476,0.00016398,0.11739514,0.21197689,-0.13680293,-0
 .22219098,-0.31438707,0.00009128,0.00009527,0.00008250,0.12853705,0.20
 625586,0.30252951,0.00046873,0.00016688,-0.00033613,-0.00634722,0.0040
 1974,0.00111146,-0.00009998,-0.00001014,0.00008457,0.47369018,0.000135
 73,0.00060960,0.00007815,0.00222367,0.00103841,-0.00026631,0.00000181,
 -0.00017356,0.00008119,0.13934446,0.54463512,-0.00054584,0.00016544,-0
 .00051703,-0.00033788,0.00012912,0.00134796,0.00013084,0.00007587,0.00
 005054,0.22699972,-0.01526366,0.13903454,-0.00032331,-0.00027438,0.000
 06595,-0.00047261,-0.00140334,0.00012190,0.00009164,0.00008344,-0.0001
 0712,-0.05258709,-0.05757013,-0.01600774,0.05899849,-0.00013099,-0.000
 23378,-0.00008748,-0.00093089,0.00014291,-0.00024032,0.00002534,0.0001
 0443,-0.00005823,-0.10378518,-0.48451905,0.02432019,0.09614358,0.49339
 207,0.00004850,-0.00039387,0.00015852,-0.00024031,0.00005609,-0.000435
 84,-0.00004125,0.00007121,-0.00009575,-0.00828098,0.04787793,-0.018628
 08,0.01129783,-0.02979435,0.01919609,-0.00005869,-0.00002436,0.0001261
 5,-0.00013858,0.00017819,0.00033547,0.00001830,0.00000029,-0.00002415,
 -0.40478980,-0.08061948,-0.20210311,-0.00811471,0.00612956,-0.00510683
 ,0.41334774,0.00000281,-0.00012152,0.00004356,0.00104127,-0.00071318,-
 0.00016148,-0.00001622,0.00001609,0.00000138,-0.03271172,-0.05464403,-
 0.00804563,-0.04163012,-0.00496000,-0.02136715,0.07462188,0.05979000,0
 .00018967,0.00003117,0.00004210,0.00061266,-0.00035867,-0.00011951,-0.
 00004209,-0.00000948,-0.00001697,-0.20927418,-0.03358184,-0.11172070,0
 .00280445,0.00393183,0.00045061,0.20727849,0.03011485,0.11054560,-0.05
 322565,-0.13154029,0.04648879,-0.00020268,0.00002389,-0.00012523,-0.00
 453776,-0.01321731,0.00887784,-0.00021856,-0.00014470,0.00011518,0.000
 11220,0.00005225,0.00003632,0.00003442,0.00004615,-0.00009260,0.058082
 01,-0.13798083,-0.37338135,0.15119232,-0.00004350,-0.00027502,-0.00000
 847,-0.00645208,-0.02052380,0.01709448,-0.00008598,-0.00021740,-0.0001
 4973,0.00006385,0.00005055,0.00013764,0.00000667,0.00008639,-0.0000008
 4,0.14416853,0.39436553,0.06697328,0.19906374,-0.13839465,-0.00014876,
 -0.00031002,0.00017856,-0.01269122,-0.03334622,0.01165141,-0.00009439,
 -0.00027141,0.00009428,0.00010472,0.00008733,0.00008360,-0.00001502,0.
 00006547,-0.00006968,-0.05606423,-0.16991160,0.12726836,-0.00011475,-0
 .00007986,-0.00014710,-0.34006423,0.19267235,0.09584505,0.00006377,0.0
 0001791,-0.00000246,-0.00040391,0.00000619,-0.00031813,-0.00019199,0.0
 0008775,0.00002933,-0.00013767,0.00023844,0.00016637,0.00004025,0.0000
 3320,0.00006900,0.36262996,-0.00001615,-0.00016568,0.00004692,0.213408
 65,-0.13491589,-0.08143522,0.00002761,0.00003874,-0.00002114,-0.000332
 24,0.00040954,0.00021584,-0.00008851,0.00009278,-0.00005208,0.00005752
 ,0.00007998,-0.00012556,-0.00002353,0.00007565,0.00006138,-0.21009895,
 0.13531976,-0.00023182,0.00014647,0.00005821,0.14213240,-0.10209892,-0
 .09558863,0.00005259,-0.00004377,-0.00005139,-0.00059557,0.00029012,0.
 00034030,-0.00006559,-0.00008599,-0.00007454,-0.00003464,-0.00000933,0
 .00019021,0.00008255,-0.00003549,-0.00006983,-0.11187901,0.08481508,0.
 08539262,-0.00034902,0.00003529,0.00007111,-0.23566276,0.01371604,-0.2
 0860095,0.00005612,-0.00002586,-0.00004063,0.00049713,-0.00141243,-0.0
 0183423,0.00098398,0.00105055,0.00044483,-0.00057874,-0.00037107,-0.00
 021637,0.00013932,0.00002490,0.00003232,-0.02213912,-0.00341365,-0.030
 45752,0.25545078,0.00001590,-0.00015959,-0.00004430,-0.00608150,-0.017
 46351,-0.03539768,-0.00001580,0.00004581,-0.00001964,-0.00241519,-0.00
 206121,0.00086316,0.00166339,-0.00104143,-0.00100539,-0.00013711,0.000
 75847,0.00060208,0.00001203,0.00008160,0.00008695,0.01692714,-0.000194
 69,0.01807087,-0.00889579,0.01856294,0.00010658,0.00007733,0.00014503,
 -0.25277261,-0.01441400,-0.30507899,-0.00000551,-0.00002431,-0.0000076
 3,-0.00155812,0.00015526,-0.00183701,-0.00003323,-0.00002829,0.0002743
 4,-0.00067615,0.00066282,0.00050779,-0.00003953,-0.00005625,-0.0000774
 9,0.01601839,-0.00314290,0.00942044,0.23940339,0.01770205,0.29999960,0
 .00078020,-0.00221956,-0.00186375,-0.00007011,-0.00109804,0.00095179,0
 .00049896,-0.00029710,0.00000220,0.00089427,0.00053196,-0.00050145,-0.
 00026439,-0.00009932,-0.00012296,-0.00013214,-0.00033285,0.00041514,-0
 .00240185,0.00093707,0.00104643,0.00021939,0.00019581,-0.00028441,-0.0
 0048234,0.00026925,-0.00016382,0.62991904,-0.00237340,-0.00252510,-0.0
 0335694,-0.00052325,0.00026484,0.00025756,-0.00028361,-0.00007048,0.00
 001470,-0.00017986,-0.00053571,0.00095740,0.00015348,0.00013241,0.0000
 3247,-0.00010002,-0.00008663,-0.00031232,0.00087905,-0.00124422,0.0012
 3988,0.00005201,-0.00019064,0.00008630,0.00022920,-0.00012346,-0.00018
 833,-0.06695977,0.49327884,-0.00159197,-0.00259768,-0.00153934,0.00111
 799,0.00099826,-0.00030760,-0.00002412,-0.00003318,0.00055799,0.000157
 92,0.00130635,0.00002502,-0.00029451,-0.00017066,-0.00035020,0.0001758
 1,-0.00041768,0.00015038,0.00132692,0.00179522,0.00134654,-0.00037326,
 -0.00006264,0.00000684,-0.00040621,-0.00057387,0.00049645,-0.07729392,
 0.05501160,0.02561170,-0.00086652,-0.00027017,-0.00031089,-0.00032854,
 0.00054929,-0.00029165,-0.00007816,-0.00006849,-0.00006448,-0.00019208
 ,-0.00020517,0.00019837,0.00010528,0.00003344,0.00001767,0.00001702,0.
 00010207,-0.00006991,0.00083342,-0.00010112,0.00023060,-0.00006138,-0.
 00024976,0.00026116,0.00027108,-0.00004441,-0.00001842,-0.14785154,0.1
 6125980,0.03333281,0.16912105,-0.00021938,0.00013811,0.00002326,0.0002
 4473,0.00044368,-0.00041655,-0.00013159,0.00005229,-0.00009636,-0.0000
 3601,0.00014692,-0.00002223,-0.00001215,-0.00002629,-0.00000586,0.0000
 1997,-0.00003659,0.00005584,0.00020923,-0.00049559,-0.00023118,-0.0001
 4409,-0.00002054,0.00011772,0.00001298,-0.00010365,0.00012676,0.215686
 73,-0.40159261,-0.06451191,-0.20383378,0.39642979,-0.00033620,0.000214
 77,-0.00028567,-0.00035301,-0.00086573,0.00017768,-0.00018265,-0.00013
 911,-0.00006372,0.00013326,-0.00015304,-0.00030435,0.00001309,0.000041
 10,0.00003439,-0.00005542,0.00010130,0.00008871,0.00067558,-0.00091961
 ,0.00003504,0.00026959,0.00022456,-0.00008759,0.00000683,0.00037874,-0
 .00017389,0.03947319,-0.05912991,-0.01480722,-0.04033596,0.06344086,0.
 01402720,0.00003614,0.00045198,0.00019622,0.00013175,0.00025284,-0.000
 18239,0.00008615,-0.00002254,-0.00006837,-0.00027880,0.00008254,-0.000
 00884,0.00003646,0.00002466,-0.00001420,0.00014526,0.00007409,-0.00011
 907,-0.00027464,-0.00051148,-0.00031428,-0.00006210,-0.00005023,0.0000
 4490,0.00003309,-0.00012340,0.00009712,-0.47643542,-0.09103717,0.04369
 130,-0.02235745,-0.01272762,0.00103701,0.49918466,0.00041007,-0.000544
 00,-0.00030205,0.00005829,-0.00014632,0.00014375,0.00006016,-0.0000827
 5,-0.00013369,0.00046864,0.00029391,-0.00045182,-0.00012070,-0.0000961
 7,-0.00003223,-0.00003749,-0.00009512,0.00033961,-0.00071437,0.0002412
 1,0.00013673,0.00000614,0.00001113,-0.00000227,-0.00015418,0.00008653,
 0.00000644,-0.14535688,-0.07974223,0.00942175,0.04322970,0.00660737,-0
 .00415883,0.10425936,0.07308111,0.00037659,-0.00020560,-0.00045758,-0.
 00016489,0.00002075,-0.00018032,0.00000071,-0.00023160,-0.00010075,-0.
 00039124,-0.00065346,0.00010437,0.00013141,0.00010955,0.00016358,0.000
 01089,0.00038332,-0.00023398,-0.00119072,-0.00008292,0.00032866,0.0000
 4235,0.00000260,0.00003027,0.00022136,0.00006260,-0.00002381,0.0371673
 8,0.00319958,-0.00797171,0.00735769,0.00187032,0.00050592,-0.04446576,
 -0.00499432,0.00728969,0.00076176,-0.00011597,0.00006212,0.00153256,0.
 00042596,0.00065887,-0.00041463,-0.00000122,0.00013848,-0.00367135,-0.
 00312919,-0.00328218,0.00030706,0.00109367,0.00187695,0.00059550,-0.00
 081128,-0.00002274,-0.00002359,-0.00003235,-0.00004126,0.00004607,-0.0
 0027373,-0.00008916,-0.00095320,0.00062879,0.00003891,0.00031119,-0.00
 018611,0.00010896,-0.00015444,-0.00001909,0.00002039,-0.00005763,0.000
 15143,-0.00008545,0.38841038,-0.00035371,0.00006089,0.00079156,0.00250
 712,-0.00586699,-0.00298998,0.00006033,-0.00035852,-0.00004161,-0.0055
 0323,-0.00093173,-0.00244568,0.00125717,-0.00319160,0.00004463,-0.0002
 6879,-0.00058089,-0.00027279,0.00005276,0.00005830,0.00002380,-0.00092
 052,-0.00077741,-0.00042828,0.00053312,0.00002235,0.00044965,-0.000312
 85,-0.00028861,0.00031033,0.00002826,0.00015577,-0.00010197,0.00014028
 ,-0.00003533,-0.00005715,0.01550516,0.52535395,0.00062361,0.00179206,-
 0.00049154,0.00153792,-0.00315389,0.00036764,-0.00011261,-0.00050123,0
 .00069303,-0.00418072,-0.00154364,-0.00007235,0.00326790,0.00023943,-0
 .00130926,0.00018667,-0.00052328,0.00021786,-0.00020183,-0.00036893,-0
 .00040429,-0.00054009,-0.00020051,-0.00026818,0.00000754,0.00112727,0.
 00023068,0.00008918,0.00017121,0.00056585,0.00002521,-0.00001603,-0.00
 019118,-0.00004750,-0.00001041,-0.00017352,-0.21275922,0.22855905,0.24
 414790,-0.00014191,0.00014027,-0.00007875,-0.00300776,0.00092427,-0.00
 008143,0.00009257,-0.00006689,0.00002174,0.00078852,0.00038542,-0.0003
 1163,-0.00186769,-0.00002868,0.00077254,-0.00000690,-0.00008433,-0.000
 19719,0.00002848,-0.00000012,-0.00000992,0.00045272,0.00112884,0.00026
 001,0.00037663,-0.00139370,-0.00018458,-0.00008756,0.00008648,-0.00005
 805,0.00005126,0.00000089,0.00000234,0.00002273,-0.00004284,0.00002628
 ,-0.33222254,0.08902223,0.23222638,0.33100059,0.00016546,-0.00046136,-
 0.00012116,0.00047670,0.00203962,0.00023374,-0.00004209,0.00017027,-0.
 00006659,0.00035964,-0.00084146,-0.00063087,0.00031452,0.00094421,0.00
 074600,0.00006356,-0.00016579,-0.00005476,-0.00000183,0.00008361,0.000
 13129,0.00082843,0.00013614,0.00015328,-0.00115577,-0.00001533,-0.0004
 1943,0.00029259,-0.00001648,-0.00028183,-0.00012248,-0.00010779,0.0001
 5797,-0.00007218,0.00006259,0.00002171,0.04683301,-0.06183976,-0.05335
 221,-0.08074208,0.06907347,-0.00032840,-0.00026301,0.00018245,0.000017
 95,0.00139016,-0.00232551,0.00014774,0.00004433,-0.00014283,0.00034571
 ,-0.00047331,-0.00089624,-0.00063541,0.00073973,0.00134031,-0.00006476
 ,-0.00008953,-0.00003169,0.00002471,0.00011437,0.00007330,0.00038747,-
 0.00029148,0.00002386,-0.00062428,-0.00158218,-0.00019018,-0.00000858,
 -0.00007636,-0.00017102,-0.00001547,-0.00001478,0.00008298,-0.00000114
 ,0.00000104,0.00004243,0.21145238,-0.07783804,-0.16487020,-0.22665393,
 0.07618714,0.17474639,-0.00025431,0.00009284,0.00005029,0.00005163,0.0
 0091707,0.00032001,0.00020921,-0.00003002,-0.00002947,-0.00147273,-0.0
 0036315,-0.00054855,0.00127114,-0.00088872,0.00034055,-0.00013664,-0.0
 0030991,-0.00017366,0.00001170,-0.00000524,0.00000238,0.00013713,0.000
 11691,0.00005154,-0.00011432,0.00013675,0.00009306,-0.00003740,0.00000
 741,0.00001079,0.00000806,-0.00000442,0.00001243,0.00001914,-0.0000304
 2,-0.00001253,-0.05098617,-0.10193819,-0.01978995,0.00474124,0.0358013
 2,0.01403408,0.04627131,0.00020617,0.00039394,-0.00021970,0.00045085,0
 .00018528,-0.00018388,-0.00006237,-0.00008961,0.00024023,0.00045977,0.
 00045892,0.00010851,-0.00078258,-0.00039599,-0.00014759,0.00005303,0.0
 0013280,-0.00007138,-0.00005569,-0.00006271,-0.00005549,-0.00011096,-0
 .00020008,-0.00011879,-0.00005053,-0.00016394,-0.00003441,0.00006011,0
 .00011733,-0.00000129,-0.00001063,-0.00003970,0.00000106,-0.00002287,-
 0.00002571,0.00000572,-0.05773257,-0.44500614,-0.17199121,-0.00830691,
 -0.00958594,0.00041582,0.06624773,0.45512206,-0.00012939,-0.00063467,-
 0.00012009,0.00010487,-0.00003197,0.00010747,0.00001676,0.00042469,-0.
 00028039,-0.00008449,0.00017895,-0.00013888,0.00011128,-0.00070867,-0.
 00004581,-0.00014945,-0.00016405,0.00013651,0.00006619,0.00010575,0.00
 005491,-0.00007646,-0.00016416,0.00018030,0.00004434,0.00001665,0.0000
 6696,0.00000788,0.00000424,-0.00019156,0.00000089,0.00001251,0.0000485
 9,0.00000020,0.00001485,0.00005239,0.00089857,-0.14698482,-0.07435579,
 -0.00690141,-0.02519700,-0.00821649,0.00616962,0.17263463,0.08178793,-
 0.00336381,-0.00049031,-0.00253601,-0.00634734,0.00223300,0.00386341,0
 .00037211,0.00019473,-0.00061355,-0.00627732,0.00073248,-0.00164453,0.
 00191555,0.00122298,-0.00105799,-0.00006438,0.00014080,-0.00125896,0.0
 0160292,-0.00002151,0.00092033,-0.00041412,-0.00038859,0.00075257,0.00
 247137,-0.00054637,-0.00030548,-0.00486030,-0.00102424,0.00011953,0.00
 148293,0.00095361,-0.00038048,-0.00022935,-0.00218691,0.00097593,-0.00
 348097,0.00019086,-0.00033249,-0.00022037,-0.00299880,0.00192193,0.000
 28100,-0.00034255,-0.00007940,0.01713207,-0.00056124,-0.00386136,-0.00
 100356,0.00049099,-0.00387123,0.00019359,0.00004538,0.00080781,-0.0011
 5488,0.00024042,-0.00366828,0.00017409,0.00220250,-0.00039505,0.003832
 54,0.00005657,0.00054003,-0.00028772,0.00025384,0.00115725,0.00322935,
 0.00048482,0.00030118,-0.00085699,-0.00012278,0.00176910,-0.00087239,-
 0.00129716,-0.00737726,-0.00019278,-0.00029656,-0.00155117,0.00090784,
 -0.00071826,0.00038380,0.00054889,-0.00233651,-0.00677428,-0.00022767,
 -0.00102286,0.00052399,0.00173610,0.00025003,-0.00084052,0.00049305,0.
 00233082,0.02285599,-0.00226714,-0.00048524,-0.01919717,0.00237302,-0.
 00189483,-0.00737045,-0.00012711,-0.00005531,-0.00041849,-0.00403684,0
 .00223871,-0.00688237,-0.00077492,0.00170484,-0.00076194,0.00011603,-0
 .00059456,-0.00013723,0.00002009,0.00109405,-0.00209873,0.00050896,0.0
 0012931,0.00049712,0.00194846,-0.00028733,-0.00375229,0.00108571,0.002
 08892,-0.00342211,-0.00031763,-0.00033237,0.00091311,0.00015481,0.0000
 2146,0.00062436,0.00102438,0.00098130,-0.00408667,0.00116759,0.0024927
 1,0.00035247,-0.00053059,-0.00058221,0.00091394,-0.00034484,-0.0065194
 5,0.04482644\\0.00000231,-0.00000344,0.00000016,0.00000192,0.00000364,
 0.00000117,0.00000384,-0.00000349,-0.00000091,0.00000029,-0.00000094,-
 0.00000110,-0.00000080,-0.00000112,-0.00000108,0.00000124,-0.00000238,
 -0.00000181,0.00000307,-0.00000222,-0.00000084,0.00000215,0.00000280,0
 .00000226,0.00000240,0.00000123,0.00000075,-0.00000080,-0.00000143,-0.
 00000238,-0.00000370,0.00000045,-0.00000282,-0.00000132,0.00000178,0.0
 0000124,-0.00000370,0.00000195,0.00000242,-0.00000208,0.00000234,0.000
 00185,-0.00000420,0.00000094,0.00000115,-0.00000061,-0.00000012,-0.000
 00008\\\@


 KNIGHT- SIRE, I'VE JUST RETURNED FROM THE FRONT
 KING-   HOW GOES THE BATTLE                    
 KNIGHT- THE SITUATION IS QUITE FLUID           
 KING-   WHAT DOES *THAT* MEAN                  
 KNIGHT- WE'RE UP THE CREEK                     
                THE WIZARD OF ID                
 Job cpu time:       0 days  1 hours  3 minutes  7.3 seconds.
 Elapsed time:       0 days  0 hours  1 minutes 35.7 seconds.
 File lengths (MBytes):  RWF=     88 Int=      0 D2E=      0 Chk=      6 Scr=      1
 Normal termination of Gaussian 16 at Mon Jul 18 21:12:02 2022.
