 Entering Gaussian System, Link 0=g16
 Initial command:
 /share/sw/gaussian/g16_B.01_avx2-enabled/g16/l1.exe "/scratch/hnr2/2615639/Gau-19435.inp" -scrdir="/scratch/hnr2/2615639/"
 Entering Link 1 = /share/sw/gaussian/g16_B.01_avx2-enabled/g16/l1.exe PID=     19436.
  
 Copyright (c) 1988-2017, Gaussian, Inc.  All Rights Reserved.
  
 This is part of the Gaussian(R) 16 program.  It is based on
 the Gaussian(R) 09 system (copyright 2009, Gaussian, Inc.),
 the Gaussian(R) 03 system (copyright 2003, Gaussian, Inc.),
 the Gaussian(R) 98 system (copyright 1998, Gaussian, Inc.),
 the Gaussian(R) 94 system (copyright 1995, Gaussian, Inc.),
 the Gaussian 92(TM) system (copyright 1992, Gaussian, Inc.),
 the Gaussian 90(TM) system (copyright 1990, Gaussian, Inc.),
 the Gaussian 88(TM) system (copyright 1988, Gaussian, Inc.),
 the Gaussian 86(TM) system (copyright 1986, Carnegie Mellon
 University), and the Gaussian 82(TM) system (copyright 1983,
 Carnegie Mellon University). Gaussian is a federally registered
 trademark of Gaussian, Inc.
  
 This software contains proprietary and confidential information,
 including trade secrets, belonging to Gaussian, Inc.
  
 This software is provided under written license and may be
 used, copied, transmitted, or stored only in accord with that
 written license.
  
 The following legend is applicable only to US Government
 contracts under FAR:
  
                    RESTRICTED RIGHTS LEGEND
  
 Use, reproduction and disclosure by the US Government is
 subject to restrictions as set forth in subparagraphs (a)
 and (c) of the Commercial Computer Software - Restricted
 Rights clause in FAR 52.227-19.
  
 Gaussian, Inc.
 340 Quinnipiac St., Bldg. 40, Wallingford CT 06492
  
  
 ---------------------------------------------------------------
 Warning -- This program may not be used in any manner that
 competes with the business of Gaussian, Inc. or will provide
 assistance to any competitor of Gaussian, Inc.  The licensee
 of this program is prohibited from giving any competitor of
 Gaussian, Inc. access to this program.  By using this program,
 the user acknowledges that Gaussian, Inc. is engaged in the
 business of creating and licensing software in the field of
 computational chemistry and represents and warrants to the
 licensee that it is not a competitor of Gaussian, Inc. and that
 it will not use this program in any manner prohibited above.
 ---------------------------------------------------------------
  

 Cite this work as:
 Gaussian 16, Revision B.01,
 M. J. Frisch, G. W. Trucks, H. B. Schlegel, G. E. Scuseria, 
 M. A. Robb, J. R. Cheeseman, G. Scalmani, V. Barone, 
 G. A. Petersson, H. Nakatsuji, X. Li, M. Caricato, A. V. Marenich, 
 J. Bloino, B. G. Janesko, R. Gomperts, B. Mennucci, H. P. Hratchian, 
 J. V. Ortiz, A. F. Izmaylov, J. L. Sonnenberg, D. Williams-Young, 
 F. Ding, F. Lipparini, F. Egidi, J. Goings, B. Peng, A. Petrone, 
 T. Henderson, D. Ranasinghe, V. G. Zakrzewski, J. Gao, N. Rega, 
 G. Zheng, W. Liang, M. Hada, M. Ehara, K. Toyota, R. Fukuda, 
 J. Hasegawa, M. Ishida, T. Nakajima, Y. Honda, O. Kitao, H. Nakai, 
 T. Vreven, K. Throssell, J. A. Montgomery, Jr., J. E. Peralta, 
 F. Ogliaro, M. J. Bearpark, J. J. Heyd, E. N. Brothers, K. N. Kudin, 
 V. N. Staroverov, T. A. Keith, R. Kobayashi, J. Normand, 
 K. Raghavachari, A. P. Rendell, J. C. Burant, S. S. Iyengar, 
 J. Tomasi, M. Cossi, J. M. Millam, M. Klene, C. Adamo, R. Cammi, 
 J. W. Ochterski, R. L. Martin, K. Morokuma, O. Farkas, 
 J. B. Foresman, and D. J. Fox, Gaussian, Inc., Wallingford CT, 2016.
 
 ******************************************
 Gaussian 16:  ES64L-G16RevB.01 20-Dec-2017
                18-Jul-2022 
 ******************************************
 %nprocshared=40
 Will use up to   40 processors via shared memory.
 %mem=60GB
 %oldchk=sim002_type3_coord-5_3-1-1_10C_b1_id81771_step1460.chk
 %chk=sim002_type3_coord-5_3-1-1_10C_b1_id81771_step1460_2.chk
 Copying data from "sim002_type3_coord-5_3-1-1_10C_b1_id81771_step1460.chk" to current chk file "sim002_type3_coord-5_3-1-1_10C_b1_id81771_step1460_2.chk"
 IOpt=  2 FromEx=T IUOpen= 4 IOptOp= 5 NList=   0 IFRang= 0 IUIn= 4 IUOut= 2.
 ----------------------------------------------------------------------
 # geom=check scrf=(solvent=water,iefpcm,externaliteration,1stvac,read)
  rb3lyp/aug-cc-pvdz empiricaldispersion=gd3 scf=(maxcycle=500) int(Acc
 2E=11,grid=ultrafine)
 ----------------------------------------------------------------------
 1/28=-2,29=2,30=1,38=1,70=10002203,72=1,125=1000,172=1/1,24;
 2/12=2,40=1/2;
 3/5=16,7=10,11=2,14=-4,25=1,27=11,30=1,70=1000100,72=1,74=-5,75=-5,116=1,124=31/1,2,3;
 4/9=2/1;
 5/5=2,7=500,17=20,38=5,53=1,87=11/2;
 6/7=2,8=2,9=2,10=2,28=1,87=11/1;
 1/28=-2,70=10002205,72=1/24(1);
 99/5=1,9=1/99;
 3/5=16,7=10,11=2,14=-2,25=1,27=11,30=1,70=100,72=1,74=-5,75=-5,116=1,124=31/1,2,3;
 4/5=5,9=2,16=3,69=1/1;
 5/5=2,7=500,17=20,38=5,53=1,87=11/2;
 6/7=2,8=2,9=2,10=2,28=1,87=11/1;
 1/28=-2,70=10002205,72=1/24(-4);
 99/5=1,9=1/99;
 -----------------------------------------------------------
 MD frame sim002_type3_coord-5_3-1-1_10C_b1_id81771_step1460
 -----------------------------------------------------------
 Structure from the checkpoint file:  "sim002_type3_coord-5_3-1-1_10C_b1_id81771_step1460_2.chk"
 Charge =  1 Multiplicity = 1
 No Z-Matrix found in chk file; cartesian coordinates used.
  O                                                 0.065786820386     -0.233403184204     -2.558856856123
  O                                                -1.075936464237      0.158035429857      1.584089015326
  H                                                -0.267051756856     -0.786602686464     -3.275620400081
  O                                                 1.680533206670     -0.748032350853      1.637276729263
  H                                                 1.495063094809     -1.697233372798      1.693866457463
  H                                                 2.531964475787     -0.612853091899      2.070808340643
  H                                                 0.361879452034      0.588695922340     -2.971090585654
  H                                                -1.850614678209      0.642305680876      1.895383939782
  H                                                -0.433729496418      0.182113105535      2.308330811018
  O                                                 1.216229191160      1.968725327030     -0.982524074410
  H                                                 0.755815615971      2.806913665911     -0.843008869366
  H                                                 2.148212916456      2.212295011700     -1.060557692157
  O                                                -0.313737306310     -2.406711762746      0.461699660549
  H                                                -1.083220386258     -2.191687989745      1.008192100939
  H                                                -0.463665973301     -3.300475926355      0.129371548255
  Na                                                0.365291288315     -0.194173778184     -0.285210125447
 Recover connectivity data from disk.
 SC-PCM: Self-consistent PCM reaction field calculation.
 Using the following non-standard input for PCM:
 dis
 cav
 rep
 --- end of non-standard input.
 ------------------------------------------------------------------------------
 Polarizable Continuum Model (PCM)
 =================================
 Model                : PCM.
 Atomic radii         : UFF (Universal Force Field).
 Polarization charges : Total charges.
 Charge compensation  : None.
 Solution method      : On-the-fly selection.
 Cavity type          : Scaled VdW (van der Waals Surface) (Alpha=1.100).
 Cavity algorithm     : GePol (No added spheres)
                        Default sphere list used, NSphG=   16.
                        Lebedev-Laikov grids with approx.  5.0 points / Ang**2.
                        Smoothing algorithm: York/Karplus (Gamma=1.0000).
                        Polarization charges: spherical gaussians, with
                                              point-specific exponents (IZeta= 3).
                        Self-potential: point-specific (ISelfS= 7).
                        Self-field    : sphere-specific E.n sum rule (ISelfD= 2).
 Solvent              : Water, Eps=  78.355300 Eps(inf)=   1.777849
 ------------------------------------------------------------------------------
 Spheres list:
 ISph  on   Nord     Re0    Alpha      Xe            Ye            Ze
    1   O      1    1.7500  1.100      0.065787     -0.233403     -2.558857
    2   O      2    1.7500  1.100     -1.075936      0.158035      1.584089
    3   H      3    1.4430  1.100     -0.267052     -0.786603     -3.275620
    4   O      4    1.7500  1.100      1.680533     -0.748032      1.637277
    5   H      5    1.4430  1.100      1.495063     -1.697233      1.693866
    6   H      6    1.4430  1.100      2.531964     -0.612853      2.070808
    7   H      7    1.4430  1.100      0.361879      0.588696     -2.971091
    8   H      8    1.4430  1.100     -1.850615      0.642306      1.895384
    9   H      9    1.4430  1.100     -0.433729      0.182113      2.308331
   10   O     10    1.7500  1.100      1.216229      1.968725     -0.982524
   11   H     11    1.4430  1.100      0.755816      2.806914     -0.843009
   12   H     12    1.4430  1.100      2.148213      2.212295     -1.060558
   13   O     13    1.7500  1.100     -0.313737     -2.406712      0.461700
   14   H     14    1.4430  1.100     -1.083220     -2.191688      1.008192
   15   H     15    1.4430  1.100     -0.463666     -3.300476      0.129372
   16  Na     16    1.4915  1.100      0.365291     -0.194174     -0.285210
 ------------------------------------------------------------------------------
 SC-PCM: Now performing the calculation in vacuo, IExtIt=   0.
                          Input orientation:                          
 ---------------------------------------------------------------------
 Center     Atomic      Atomic             Coordinates (Angstroms)
 Number     Number       Type             X           Y           Z
 ---------------------------------------------------------------------
      1          8           0        0.065787   -0.233403   -2.558857
      2          8           0       -1.075936    0.158035    1.584089
      3          1           0       -0.267052   -0.786603   -3.275620
      4          8           0        1.680533   -0.748032    1.637277
      5          1           0        1.495063   -1.697233    1.693866
      6          1           0        2.531964   -0.612853    2.070808
      7          1           0        0.361879    0.588696   -2.971091
      8          1           0       -1.850615    0.642306    1.895384
      9          1           0       -0.433729    0.182113    2.308331
     10          8           0        1.216229    1.968725   -0.982524
     11          1           0        0.755816    2.806914   -0.843009
     12          1           0        2.148213    2.212295   -1.060558
     13          8           0       -0.313737   -2.406712    0.461700
     14          1           0       -1.083220   -2.191688    1.008192
     15          1           0       -0.463666   -3.300476    0.129372
     16         11           0        0.365291   -0.194174   -0.285210
 ---------------------------------------------------------------------
                    Distance matrix (angstroms):
                    1          2          3          4          5
     1  O    0.000000
     2  O    4.315177   0.000000
     3  H    0.964656   5.016315   0.000000
     4  O    4.525460   2.902053   5.284991   0.000000
     5  H    4.719246   3.172398   5.350710   0.968806   0.000000
     6  H    5.259260   3.721305   6.037299   0.964965   1.546975
     7  H    0.966154   4.796086   1.542640   4.976217   5.317086
     8  H    4.927446   0.965168   5.593634   3.803770   4.087495
     9  H    4.910365   0.968264   5.669806   2.405326   2.762200
    10  O    2.942399   3.888460   3.879465   3.802592   4.547534
    11  H    3.558623   4.032701   4.458387   4.432218   5.222027
    12  H    3.544409   4.648578   4.442228   4.032440   4.826787
    13  O    3.740464   2.901488   4.073634   2.847861   2.300729
    14  H    4.228349   2.419279   4.581642   3.180915   2.713334
    15  H    4.112642   3.801628   4.237002   3.658734   2.975676
    16  Na   2.293624   2.386518   3.113420   2.394280   2.729893
                    6          7          8          9         10
     6  H    0.000000
     7  H    5.619051   0.000000
     8  H    4.562148   5.346081   0.000000
     9  H    3.079566   5.354493   1.545919   0.000000
    10  O    4.209340   2.566864   4.409906   4.091952   0.000000
    11  H    4.831132   3.099098   4.356352   4.270309   0.966439
    12  H    4.234877   3.078506   5.214698   4.705048   0.966441
    13  O    3.728965   4.605754   3.703235   3.182210   4.855000
    14  H    4.085515   5.064932   3.067169   2.783367   5.153587
    15  H    4.468366   5.041830   4.537395   4.108185   5.641174
    16  Na   3.228094   2.797651   3.219461   2.739796   2.426618
                   11         12         13         14         15
    11  H    0.000000
    12  H    1.529598   0.000000
    13  O    5.479790   5.451027   0.000000
    14  H    5.638707   5.840972   0.967984   0.000000
    15  H    6.303401   6.215182   0.965264   1.544534   0.000000
    16  Na   3.077365   3.093714   2.431929   2.785882   3.241629
                   16
    16  Na   0.000000
 Stoichiometry    H10NaO5(1+)
 Framework group  C1[X(H10NaO5)]
 Deg. of freedom    42
 Full point group                 C1      NOp   1
 Largest Abelian subgroup         C1      NOp   1
 Largest concise Abelian subgroup C1      NOp   1
                         Standard orientation:                         
 ---------------------------------------------------------------------
 Center     Atomic      Atomic             Coordinates (Angstroms)
 Number     Number       Type             X           Y           Z
 ---------------------------------------------------------------------
      1          8           0        2.000499   -1.589011    0.010050
      2          8           0       -1.284657    0.705263   -1.591453
      3          1           0        2.204937   -2.531592   -0.007497
      4          8           0       -1.404481    1.107841    1.280043
      5          1           0       -2.024606    0.390124    1.477305
      6          1           0       -1.538129    1.775788    1.963522
      7          1           0        2.850987   -1.130763   -0.001513
      8          1           0       -1.381105    0.949022   -2.520338
      9          1           0       -1.749117    1.386716   -1.084073
     10          8           0        2.183868    1.347464    0.044714
     11          1           0        2.479012    1.861137   -0.718853
     12          1           0        2.536122    1.822342    0.809186
     13          8           0       -1.733268   -1.515383    0.221312
     14          1           0       -2.172280   -1.324887   -0.620100
     15          1           0       -2.003595   -2.408795    0.467225
     16         11           0        0.245644   -0.112589    0.047073
 ---------------------------------------------------------------------
 Rotational constants (GHZ):           2.0590060           1.3411849           1.1078678
 Standard basis: Aug-CC-pVDZ (5D, 7F)
 There are   244 symmetry adapted cartesian basis functions of A   symmetry.
 There are   232 symmetry adapted basis functions of A   symmetry.
   232 basis functions,   406 primitive gaussians,   244 cartesian basis functions
    30 alpha electrons       30 beta electrons
       nuclear repulsion energy       306.2959322543 Hartrees.
 NAtoms=   16 NActive=   16 NUniq=   16 SFac= 1.00D+00 NAtFMM=   60 NAOKFM=F Big=F
 Integral buffers will be    131072 words long.
 Raffenetti 2 integral format.
 Two-electron integral symmetry is turned on.
 Nuclear repulsion after empirical dispersion term =      306.2863618269 Hartrees.
 One-electron integrals computed using PRISM.
 NBasis=   232 RedAO= T EigKep=  1.91D-04  NBF=   232
 NBsUse=   232 1.00D-06 EigRej= -1.00D+00 NBFU=   232
 SCF N**3 symmetry information disabled.
 ExpMin= 6.16D-03 ExpMax= 3.17D+04 ExpMxC= 1.08D+03 IAcc=3 IRadAn=         5 AccDes= 0.00D+00
 Harris functional with IExCor=  402 and IRadAn=       5 diagonalized for initial guess.
 HarFok:  IExCor=  402 AccDes= 0.00D+00 IRadAn=         5 IDoV= 1 UseB2=F ITyADJ=14
 ICtDFT=  3500011 ScaDFX=  1.000000  1.000000  1.000000  1.000000
 FoFCou: FMM=F IPFlag=           0 FMFlag=      100000 FMFlg1=           0
         NFxFlg=           0 DoJE=T BraDBF=F KetDBF=T FulRan=T
         wScrn=  0.000000 ICntrl=       500 IOpCl=  0 I1Cent=   200000004 NGrid=           0
         NMat0=    1 NMatS0=      1 NMatT0=    0 NMatD0=    1 NMtDS0=    0 NMtDT0=    0
 Petite list used in FoFCou.
 Requested convergence on RMS density matrix=1.00D-08 within 500 cycles.
 Requested convergence on MAX density matrix=1.00D-06.
 Requested convergence on             energy=1.00D-06.
 No special actions if energy rises.
 SCF Done:  E(RB3LYP) =  -544.464574225     A.U. after   10 cycles
            NFock= 10  Conv=0.34D-08     -V/T= 2.0059

 **********************************************************************

            Population analysis using the SCF Density.

 **********************************************************************

 Orbital symmetries:
       Occupied  (A) (A) (A) (A) (A) (A) (A) (A) (A) (A) (A) (A)
                 (A) (A) (A) (A) (A) (A) (A) (A) (A) (A) (A) (A)
                 (A) (A) (A) (A) (A) (A)
       Virtual   (A) (A) (A) (A) (A) (A) (A) (A) (A) (A) (A) (A)
                 (A) (A) (A) (A) (A) (A) (A) (A) (A) (A) (A) (A)
                 (A) (A) (A) (A) (A) (A) (A) (A) (A) (A) (A) (A)
                 (A) (A) (A) (A) (A) (A) (A) (A) (A) (A) (A) (A)
                 (A) (A) (A) (A) (A) (A) (A) (A) (A) (A) (A) (A)
                 (A) (A) (A) (A) (A) (A) (A) (A) (A) (A) (A) (A)
                 (A) (A) (A) (A) (A) (A) (A) (A) (A) (A) (A) (A)
                 (A) (A) (A) (A) (A) (A) (A) (A) (A) (A) (A) (A)
                 (A) (A) (A) (A) (A) (A) (A) (A) (A) (A) (A) (A)
                 (A) (A) (A) (A) (A) (A) (A) (A) (A) (A) (A) (A)
                 (A) (A) (A) (A) (A) (A) (A) (A) (A) (A) (A) (A)
                 (A) (A) (A) (A) (A) (A) (A) (A) (A) (A) (A) (A)
                 (A) (A) (A) (A) (A) (A) (A) (A) (A) (A) (A) (A)
                 (A) (A) (A) (A) (A) (A) (A) (A) (A) (A) (A) (A)
                 (A) (A) (A) (A) (A) (A) (A) (A) (A) (A) (A) (A)
                 (A) (A) (A) (A) (A) (A) (A) (A) (A) (A) (A) (A)
                 (A) (A) (A) (A) (A) (A) (A) (A) (A) (A)
 The electronic state is 1-A.
 Alpha  occ. eigenvalues --  -38.58589 -19.31838 -19.31201 -19.31060 -19.30962
 Alpha  occ. eigenvalues --  -19.30530  -2.32084  -1.25423  -1.25397  -1.25327
 Alpha  occ. eigenvalues --   -1.17999  -1.17679  -1.17075  -1.16888  -1.16685
 Alpha  occ. eigenvalues --   -0.69965  -0.69487  -0.68856  -0.68722  -0.68691
 Alpha  occ. eigenvalues --   -0.57411  -0.56453  -0.55726  -0.55655  -0.55501
 Alpha  occ. eigenvalues --   -0.48530  -0.47976  -0.47897  -0.47816  -0.47205
 Alpha virt. eigenvalues --   -0.16440  -0.14036  -0.12745  -0.12148  -0.10728
 Alpha virt. eigenvalues --   -0.08267  -0.07645  -0.07243  -0.07137  -0.06415
 Alpha virt. eigenvalues --   -0.05783  -0.05326  -0.05173  -0.04917  -0.04879
 Alpha virt. eigenvalues --   -0.04624  -0.04211  -0.02627   0.00222   0.00340
 Alpha virt. eigenvalues --    0.00642   0.01271   0.01637   0.01854   0.02027
 Alpha virt. eigenvalues --    0.02251   0.02694   0.02894   0.03603   0.03851
 Alpha virt. eigenvalues --    0.04090   0.04329   0.04670   0.05254   0.05702
 Alpha virt. eigenvalues --    0.05827   0.06240   0.07200   0.07929   0.08434
 Alpha virt. eigenvalues --    0.08712   0.09921   0.12100   0.12796   0.13211
 Alpha virt. eigenvalues --    0.13702   0.14027   0.15382   0.16908   0.17092
 Alpha virt. eigenvalues --    0.18663   0.18982   0.19849   0.21551   0.22141
 Alpha virt. eigenvalues --    0.22724   0.23510   0.25191   0.25503   0.26521
 Alpha virt. eigenvalues --    0.27035   0.27991   0.28864   0.30731   0.30828
 Alpha virt. eigenvalues --    0.31562   0.32537   0.33134   0.33662   0.34094
 Alpha virt. eigenvalues --    0.34679   0.35064   0.35351   0.36351   0.37116
 Alpha virt. eigenvalues --    0.37442   0.38005   0.39152   0.39926   0.40615
 Alpha virt. eigenvalues --    0.41391   0.42443   0.43829   0.44707   0.46092
 Alpha virt. eigenvalues --    0.47181   0.48172   0.48794   0.51519   0.56288
 Alpha virt. eigenvalues --    0.56704   0.58846   0.58962   0.61004   0.61911
 Alpha virt. eigenvalues --    0.62641   0.69428   0.71056   0.72221   0.72658
 Alpha virt. eigenvalues --    0.74312   0.79974   0.80805   0.81271   0.83619
 Alpha virt. eigenvalues --    0.84673   0.85808   0.85992   0.86969   0.88452
 Alpha virt. eigenvalues --    0.90046   0.90922   0.92792   0.93658   0.93957
 Alpha virt. eigenvalues --    0.96633   1.02627   1.05265   1.05569   1.08516
 Alpha virt. eigenvalues --    1.09997   1.11222   1.14042   1.17440   1.17857
 Alpha virt. eigenvalues --    1.19083   1.21023   1.24338   1.27147   1.27912
 Alpha virt. eigenvalues --    1.30884   1.36071   1.44626   1.49302   1.51079
 Alpha virt. eigenvalues --    1.55967   1.61548   1.64271   1.65120   1.65898
 Alpha virt. eigenvalues --    1.66888   1.68567   1.72004   1.72556   1.73381
 Alpha virt. eigenvalues --    1.76312   1.76785   1.77070   1.77186   1.78107
 Alpha virt. eigenvalues --    1.79827   1.98312   2.00327   2.01750   2.02294
 Alpha virt. eigenvalues --    2.03008   2.03735   2.05556   2.06025   2.06862
 Alpha virt. eigenvalues --    2.08185   2.15574   2.19764   2.21074   2.21344
 Alpha virt. eigenvalues --    2.24300   2.33922   2.36273   2.40424   2.40762
 Alpha virt. eigenvalues --    2.41532   2.50495   2.60399   2.60492   2.64440
 Alpha virt. eigenvalues --    2.68680   2.81438   3.15871   3.16910   3.17659
 Alpha virt. eigenvalues --    3.18025   3.19519   3.20080   3.21309   3.22121
 Alpha virt. eigenvalues --    3.22725   3.24308   3.25657   3.27618   3.28781
 Alpha virt. eigenvalues --    3.29713   3.32974   3.52887   3.54588   3.58452
 Alpha virt. eigenvalues --    3.59130   3.60076   3.75484   3.76060   3.79880
 Alpha virt. eigenvalues --    3.80556   3.80831
          Condensed to atoms (all electrons):
               1          2          3          4          5          6
     1  O    7.725401  -0.005506   0.310363  -0.004955  -0.000650   0.000260
     2  O   -0.005506   7.898243   0.000475  -0.020614  -0.005825   0.004431
     3  H    0.310363   0.000475   0.585286  -0.000211  -0.000070   0.000091
     4  O   -0.004955  -0.020614  -0.000211   7.820443   0.388119   0.270132
     5  H   -0.000650  -0.005825  -0.000070   0.388119   0.581496  -0.125972
     6  H    0.000260   0.004431   0.000091   0.270132  -0.125972   0.613569
     7  H    0.377338   0.000035  -0.100737  -0.000890  -0.000453   0.000189
     8  H    0.001982   0.267527   0.000220   0.003434  -0.000232   0.000817
     9  H   -0.000165   0.364728  -0.000189   0.004826   0.002381   0.000620
    10  O   -0.029476  -0.018387   0.002004  -0.008896  -0.001999   0.003306
    11  H    0.000090   0.002546   0.000515   0.000459  -0.000220   0.000198
    12  H    0.001354   0.001200   0.000438   0.000224  -0.000645   0.000349
    13  O   -0.012059  -0.021443   0.002416  -0.012801   0.012530   0.000970
    14  H   -0.002453   0.009677  -0.000080  -0.000709   0.002057  -0.000235
    15  H    0.003817   0.003007   0.000340   0.002423   0.001493   0.000412
    16  Na  -0.052840  -0.079448   0.017345  -0.062845  -0.048776   0.027215
               7          8          9         10         11         12
     1  O    0.377338   0.001982  -0.000165  -0.029476   0.000090   0.001354
     2  O    0.000035   0.267527   0.364728  -0.018387   0.002546   0.001200
     3  H   -0.100737   0.000220  -0.000189   0.002004   0.000515   0.000438
     4  O   -0.000890   0.003434   0.004826  -0.008896   0.000459   0.000224
     5  H   -0.000453  -0.000232   0.002381  -0.001999  -0.000220  -0.000645
     6  H    0.000189   0.000817   0.000620   0.003306   0.000198   0.000349
     7  H    0.594280   0.000246  -0.000395   0.014409   0.001102   0.001456
     8  H    0.000246   0.606783  -0.119018  -0.000033  -0.000094   0.000161
     9  H   -0.000395  -0.119018   0.568206   0.000981  -0.000020  -0.000175
    10  O    0.014409  -0.000033   0.000981   7.868748   0.306728   0.309410
    11  H    0.001102  -0.000094  -0.000020   0.306728   0.573371  -0.093505
    12  H    0.001456   0.000161  -0.000175   0.309410  -0.093505   0.576114
    13  O   -0.001509   0.002980  -0.001506  -0.008421  -0.000467  -0.000627
    14  H   -0.000412   0.000819   0.002928  -0.000906  -0.000057  -0.000156
    15  H   -0.000214   0.000825  -0.000026  -0.000581   0.000041  -0.000045
    16  Na  -0.047246   0.028008  -0.033794  -0.073719   0.009744   0.009203
              13         14         15         16
     1  O   -0.012059  -0.002453   0.003817  -0.052840
     2  O   -0.021443   0.009677   0.003007  -0.079448
     3  H    0.002416  -0.000080   0.000340   0.017345
     4  O   -0.012801  -0.000709   0.002423  -0.062845
     5  H    0.012530   0.002057   0.001493  -0.048776
     6  H    0.000970  -0.000235   0.000412   0.027215
     7  H   -0.001509  -0.000412  -0.000214  -0.047246
     8  H    0.002980   0.000819   0.000825   0.028008
     9  H   -0.001506   0.002928  -0.000026  -0.033794
    10  O   -0.008421  -0.000906  -0.000581  -0.073719
    11  H   -0.000467  -0.000057   0.000041   0.009744
    12  H   -0.000627  -0.000156  -0.000045   0.009203
    13  O    7.921029   0.381023   0.261164  -0.092874
    14  H    0.381023   0.567847  -0.115941  -0.045056
    15  H    0.261164  -0.115941   0.595630   0.026107
    16  Na  -0.092874  -0.045056   0.026107  10.513335
 Mulliken charges:
               1
     1  O   -0.312502
     2  O   -0.400647
     3  H    0.181793
     4  O   -0.378137
     5  H    0.196766
     6  H    0.203649
     7  H    0.162801
     8  H    0.205575
     9  H    0.210618
    10  O   -0.363166
    11  H    0.199569
    12  H    0.195245
    13  O   -0.430406
    14  H    0.201654
    15  H    0.221547
    16  Na   0.905641
 Sum of Mulliken charges =   1.00000
 Mulliken charges with hydrogens summed into heavy atoms:
               1
     1  O    0.032092
     2  O    0.015546
     4  O    0.022278
    10  O    0.031648
    13  O   -0.007205
    16  Na   0.905641
 Electronic spatial extent (au):  <R**2>=           1156.7537
 Charge=              1.0000 electrons
 Dipole moment (field-independent basis, Debye):
    X=              0.4610    Y=              0.7537    Z=             -0.1279  Tot=              0.8927
 Quadrupole moment (field-independent basis, Debye-Ang):
   XX=             -8.7763   YY=            -14.8480   ZZ=            -24.4369
   XY=              2.4287   XZ=              0.1682   YZ=              0.0236
 Traceless Quadrupole moment (field-independent basis, Debye-Ang):
   XX=              7.2441   YY=              1.1724   ZZ=             -8.4165
   XY=              2.4287   XZ=              0.1682   YZ=              0.0236
 Octapole moment (field-independent basis, Debye-Ang**2):
  XXX=             27.3288  YYY=            -16.1471  ZZZ=             -8.1755  XYY=              9.5086
  XXY=             -0.0125  XXZ=              1.8164  XZZ=            -16.1405  YZZ=             20.4686
  YYZ=              5.4877  XYZ=              0.5751
 Hexadecapole moment (field-independent basis, Debye-Ang**3):
 XXXX=           -481.1313 YYYY=           -238.1712 ZZZZ=           -133.9185 XXXY=             22.7907
 XXXZ=             -0.9319 YYYX=             14.4059 YYYZ=              1.1283 ZZZX=              8.3447
 ZZZY=             -1.5483 XXYY=            -41.7814 XXZZ=           -102.5754 YYZZ=            -66.3524
 XXYZ=              3.1908 YYXZ=             -7.8175 ZZXY=             -9.3712
 N-N= 3.062863618269D+02 E-N=-1.895973498092D+03  KE= 5.412944690594D+02
 SC-PCM: Now building the cavity and doing the perturbative PCM calculation.
 SC-PCM: Using the SCF Density.
 Inv3:  Mode=1 IEnd=     7357068.
 Iteration    1 A*A^-1 deviation from unit magnitude is 3.11D-15 for    182.
 Iteration    1 A*A^-1 deviation from orthogonality  is 3.33D-15 for   1329    642.
 Iteration    1 A^-1*A deviation from unit magnitude is 2.66D-15 for    182.
 Iteration    1 A^-1*A deviation from orthogonality  is 4.56D-15 for   1180   1142.
 With in-vacuo wavefunction:
 Error on total polarization charges =  0.01016
 SC-PCM: The total energy in vacuo is      -544.464574225 a.u.
 SC-PCM: The total energy including the PCM contribution is      -544.541933348 a.u.
 SC-PCM: Iterating to achieve self-consistent PCM reaction field, IExtIt=   1.
 Standard basis: Aug-CC-pVDZ (5D, 7F)
 There are   244 symmetry adapted cartesian basis functions of A   symmetry.
 There are   232 symmetry adapted basis functions of A   symmetry.
   232 basis functions,   406 primitive gaussians,   244 cartesian basis functions
    30 alpha electrons       30 beta electrons
       nuclear repulsion energy       306.2959322543 Hartrees.
 NAtoms=   16 NActive=   16 NUniq=   16 SFac= 1.00D+00 NAtFMM=   60 NAOKFM=F Big=F
 Integral buffers will be    131072 words long.
 Raffenetti 2 integral format.
 Two-electron integral symmetry is turned on.
 Nuclei-solvent charges/DBFs interaction =        -4.2956670329 a.u.
 Nuclear repulsion after self-consistent solvent charges =      302.0002652214 Hartrees.
 Nuclear repulsion after empirical dispersion term =      301.9906947940 Hartrees.
 One-electron integrals computed using PRISM.
 NBasis=   232 RedAO= T EigKep=  1.91D-04  NBF=   232
 NBsUse=   232 1.00D-06 EigRej= -1.00D+00 NBFU=   232
 Initial guess from the checkpoint file:  "sim002_type3_coord-5_3-1-1_10C_b1_id81771_step1460_2.chk"
 SCF N**3 symmetry information disabled.
 B after Tr=    -0.000000   -0.000000    0.000000
         Rot=    1.000000    0.000000   -0.000000    0.000000 Ang=   0.00 deg.
 ExpMin= 6.16D-03 ExpMax= 3.17D+04 ExpMxC= 1.08D+03 IAcc=3 IRadAn=         5 AccDes= 0.00D+00
 Harris functional with IExCor=  402 and IRadAn=       5 diagonalized for initial guess.
 HarFok:  IExCor=  402 AccDes= 0.00D+00 IRadAn=         5 IDoV= 1 UseB2=F ITyADJ=14
 ICtDFT=  3500011 ScaDFX=  1.000000  1.000000  1.000000  1.000000
 FoFCou: FMM=F IPFlag=           0 FMFlag=      100000 FMFlg1=           0
         NFxFlg=           0 DoJE=T BraDBF=F KetDBF=T FulRan=T
         wScrn=  0.000000 ICntrl=       500 IOpCl=  0 I1Cent=   200000004 NGrid=           0
         NMat0=    1 NMatS0=      1 NMatT0=    0 NMatD0=    1 NMtDS0=    0 NMtDT0=    0
 Petite list used in FoFCou.
 Requested convergence on RMS density matrix=1.00D-08 within 500 cycles.
 Requested convergence on MAX density matrix=1.00D-06.
 Requested convergence on             energy=1.00D-06.
 No special actions if energy rises.
 SCF Done:  E(RB3LYP) =  -544.541931657     A.U. after    8 cycles
            NFock=  8  Conv=0.74D-08     -V/T= 2.0060

 **********************************************************************

            Population analysis using the SCF Density.

 **********************************************************************

 Orbital symmetries:
       Occupied  (A) (A) (A) (A) (A) (A) (A) (A) (A) (A) (A) (A)
                 (A) (A) (A) (A) (A) (A) (A) (A) (A) (A) (A) (A)
                 (A) (A) (A) (A) (A) (A)
       Virtual   (A) (A) (A) (A) (A) (A) (A) (A) (A) (A) (A) (A)
                 (A) (A) (A) (A) (A) (A) (A) (A) (A) (A) (A) (A)
                 (A) (A) (A) (A) (A) (A) (A) (A) (A) (A) (A) (A)
                 (A) (A) (A) (A) (A) (A) (A) (A) (A) (A) (A) (A)
                 (A) (A) (A) (A) (A) (A) (A) (A) (A) (A) (A) (A)
                 (A) (A) (A) (A) (A) (A) (A) (A) (A) (A) (A) (A)
                 (A) (A) (A) (A) (A) (A) (A) (A) (A) (A) (A) (A)
                 (A) (A) (A) (A) (A) (A) (A) (A) (A) (A) (A) (A)
                 (A) (A) (A) (A) (A) (A) (A) (A) (A) (A) (A) (A)
                 (A) (A) (A) (A) (A) (A) (A) (A) (A) (A) (A) (A)
                 (A) (A) (A) (A) (A) (A) (A) (A) (A) (A) (A) (A)
                 (A) (A) (A) (A) (A) (A) (A) (A) (A) (A) (A) (A)
                 (A) (A) (A) (A) (A) (A) (A) (A) (A) (A) (A) (A)
                 (A) (A) (A) (A) (A) (A) (A) (A) (A) (A) (A) (A)
                 (A) (A) (A) (A) (A) (A) (A) (A) (A) (A) (A) (A)
                 (A) (A) (A) (A) (A) (A) (A) (A) (A) (A) (A) (A)
                 (A) (A) (A) (A) (A) (A) (A) (A) (A) (A)
 The electronic state is 1-A.
 Alpha  occ. eigenvalues --  -38.43789 -19.17721 -19.17418 -19.17401 -19.17308
 Alpha  occ. eigenvalues --  -19.17268  -2.17252  -1.10648  -1.10527  -1.10518
 Alpha  occ. eigenvalues --   -1.04015  -1.03823  -1.03400  -1.03320  -1.03188
 Alpha  occ. eigenvalues --   -0.56229  -0.55405  -0.55294  -0.55107  -0.55028
 Alpha  occ. eigenvalues --   -0.43473  -0.42554  -0.42052  -0.41853  -0.41839
 Alpha  occ. eigenvalues --   -0.34565  -0.34309  -0.34190  -0.34116  -0.34093
 Alpha virt. eigenvalues --   -0.03729  -0.01702  -0.01002  -0.00480   0.01245
 Alpha virt. eigenvalues --    0.01823   0.01853   0.01951   0.02063   0.03411
 Alpha virt. eigenvalues --    0.03618   0.03941   0.04059   0.05601   0.05972
 Alpha virt. eigenvalues --    0.06219   0.06624   0.07687   0.11057   0.11994
 Alpha virt. eigenvalues --    0.12087   0.12277   0.12617   0.12992   0.13270
 Alpha virt. eigenvalues --    0.13952   0.14321   0.14999   0.15156   0.15458
 Alpha virt. eigenvalues --    0.15905   0.16182   0.16374   0.16928   0.17463
 Alpha virt. eigenvalues --    0.18072   0.18318   0.19521   0.20167   0.20663
 Alpha virt. eigenvalues --    0.21384   0.22390   0.24387   0.25256   0.25812
 Alpha virt. eigenvalues --    0.26164   0.26596   0.27970   0.29661   0.29900
 Alpha virt. eigenvalues --    0.31265   0.31763   0.32602   0.34431   0.35287
 Alpha virt. eigenvalues --    0.35897   0.36466   0.37700   0.38568   0.39708
 Alpha virt. eigenvalues --    0.39806   0.41111   0.41530   0.43367   0.43596
 Alpha virt. eigenvalues --    0.44407   0.45320   0.46065   0.46489   0.46973
 Alpha virt. eigenvalues --    0.47547   0.48095   0.48221   0.49432   0.49904
 Alpha virt. eigenvalues --    0.50439   0.51064   0.52119   0.52986   0.53495
 Alpha virt. eigenvalues --    0.54430   0.55939   0.57091   0.57691   0.59356
 Alpha virt. eigenvalues --    0.60449   0.61528   0.62059   0.64630   0.69677
 Alpha virt. eigenvalues --    0.69946   0.72179   0.72340   0.74101   0.75204
 Alpha virt. eigenvalues --    0.75902   0.82428   0.84073   0.85534   0.85870
 Alpha virt. eigenvalues --    0.87669   0.93554   0.94326   0.94717   0.97113
 Alpha virt. eigenvalues --    0.98138   0.99349   0.99369   1.00518   1.02031
 Alpha virt. eigenvalues --    1.03563   1.04474   1.06323   1.07234   1.07553
 Alpha virt. eigenvalues --    1.10264   1.16353   1.18828   1.19162   1.22045
 Alpha virt. eigenvalues --    1.23427   1.24548   1.27571   1.31155   1.31569
 Alpha virt. eigenvalues --    1.32609   1.34634   1.37985   1.40641   1.41525
 Alpha virt. eigenvalues --    1.44332   1.49857   1.58299   1.63124   1.64791
 Alpha virt. eigenvalues --    1.69548   1.75672   1.77875   1.78599   1.79480
 Alpha virt. eigenvalues --    1.80584   1.82198   1.85849   1.86268   1.87042
 Alpha virt. eigenvalues --    1.89997   1.90158   1.90514   1.91048   1.91693
 Alpha virt. eigenvalues --    1.93381   2.12202   2.13918   2.15585   2.16173
 Alpha virt. eigenvalues --    2.16625   2.17477   2.19080   2.19712   2.20590
 Alpha virt. eigenvalues --    2.21888   2.29683   2.33189   2.34697   2.35069
 Alpha virt. eigenvalues --    2.37953   2.47934   2.49799   2.53970   2.54350
 Alpha virt. eigenvalues --    2.55183   2.64117   2.73824   2.74289   2.77951
 Alpha virt. eigenvalues --    2.82299   2.95337   3.29736   3.30371   3.31292
 Alpha virt. eigenvalues --    3.31726   3.33058   3.33591   3.35014   3.35838
 Alpha virt. eigenvalues --    3.36423   3.38282   3.39372   3.41284   3.42542
 Alpha virt. eigenvalues --    3.43425   3.46694   3.66972   3.68267   3.71778
 Alpha virt. eigenvalues --    3.72758   3.73718   3.89548   3.89713   3.93630
 Alpha virt. eigenvalues --    3.94230   3.94333
          Condensed to atoms (all electrons):
               1          2          3          4          5          6
     1  O    7.820973  -0.006729   0.299076  -0.006403  -0.000597   0.000054
     2  O   -0.006729   7.944762   0.000424  -0.025931  -0.005181   0.004525
     3  H    0.299076   0.000424   0.584812  -0.000292  -0.000044   0.000091
     4  O   -0.006403  -0.025931  -0.000292   7.879989   0.386316   0.263323
     5  H   -0.000597  -0.005181  -0.000044   0.386316   0.576159  -0.126443
     6  H    0.000054   0.004525   0.000091   0.263323  -0.126443   0.610372
     7  H    0.371686   0.000179  -0.102634  -0.000946  -0.000475   0.000217
     8  H    0.001934   0.262037   0.000238   0.003584  -0.000200   0.000841
     9  H   -0.000222   0.363835  -0.000192   0.003977   0.002257   0.000661
    10  O   -0.033650  -0.017760   0.002227  -0.008783  -0.002177   0.003561
    11  H    0.000448   0.002495   0.000546   0.000313  -0.000239   0.000209
    12  H    0.001800   0.001176   0.000442   0.000405  -0.000655   0.000407
    13  O   -0.013568  -0.024286   0.002574  -0.016192   0.010582   0.001392
    14  H   -0.002359   0.008632  -0.000031  -0.000415   0.001914  -0.000250
    15  H    0.004039   0.003069   0.000391   0.002671   0.001721   0.000405
    16  Na  -0.078185  -0.085483   0.020441  -0.073796  -0.048058   0.028257
               7          8          9         10         11         12
     1  O    0.371686   0.001934  -0.000222  -0.033650   0.000448   0.001800
     2  O    0.000179   0.262037   0.363835  -0.017760   0.002495   0.001176
     3  H   -0.102634   0.000238  -0.000192   0.002227   0.000546   0.000442
     4  O   -0.000946   0.003584   0.003977  -0.008783   0.000313   0.000405
     5  H   -0.000475  -0.000200   0.002257  -0.002177  -0.000239  -0.000655
     6  H    0.000217   0.000841   0.000661   0.003561   0.000209   0.000407
     7  H    0.587362   0.000286  -0.000392   0.012870   0.001188   0.001544
     8  H    0.000286   0.603128  -0.119208   0.000036  -0.000053   0.000153
     9  H   -0.000392  -0.119208   0.561319   0.001085  -0.000029  -0.000169
    10  O    0.012870   0.000036   0.001085   7.926790   0.303804   0.304921
    11  H    0.001188  -0.000053  -0.000029   0.303804   0.566293  -0.094857
    12  H    0.001544   0.000153  -0.000169   0.304921  -0.094857   0.569572
    13  O   -0.001519   0.003220  -0.001495  -0.008670  -0.000523  -0.000686
    14  H   -0.000397   0.000921   0.002740  -0.000887  -0.000034  -0.000179
    15  H   -0.000193   0.000841  -0.000020  -0.000606   0.000038  -0.000049
    16  Na  -0.043624   0.028535  -0.033544  -0.083509   0.009741   0.009844
              13         14         15         16
     1  O   -0.013568  -0.002359   0.004039  -0.078185
     2  O   -0.024286   0.008632   0.003069  -0.085483
     3  H    0.002574  -0.000031   0.000391   0.020441
     4  O   -0.016192  -0.000415   0.002671  -0.073796
     5  H    0.010582   0.001914   0.001721  -0.048058
     6  H    0.001392  -0.000250   0.000405   0.028257
     7  H   -0.001519  -0.000397  -0.000193  -0.043624
     8  H    0.003220   0.000921   0.000841   0.028535
     9  H   -0.001495   0.002740  -0.000020  -0.033544
    10  O   -0.008670  -0.000887  -0.000606  -0.083509
    11  H   -0.000523  -0.000034   0.000038   0.009741
    12  H   -0.000686  -0.000179  -0.000049   0.009844
    13  O    7.978846   0.378902   0.254767  -0.102752
    14  H    0.378902   0.560338  -0.116455  -0.043925
    15  H    0.254767  -0.116455   0.592430   0.027075
    16  Na  -0.102752  -0.043925   0.027075  10.492990
 Mulliken charges:
               1
     1  O   -0.358297
     2  O   -0.425762
     3  H    0.191930
     4  O   -0.407823
     5  H    0.205118
     6  H    0.212377
     7  H    0.174849
     8  H    0.213708
     9  H    0.219397
    10  O   -0.399252
    11  H    0.210661
    12  H    0.206331
    13  O   -0.460591
    14  H    0.211486
    15  H    0.229875
    16  Na   0.975993
 Sum of Mulliken charges =   1.00000
 Mulliken charges with hydrogens summed into heavy atoms:
               1
     1  O    0.008483
     2  O    0.007342
     4  O    0.009673
    10  O    0.017740
    13  O   -0.019231
    16  Na   0.975993
 Electronic spatial extent (au):  <R**2>=           1157.4201
 Charge=              1.0000 electrons
 Dipole moment (field-independent basis, Debye):
    X=              0.4868    Y=              0.7996    Z=             -0.1295  Tot=              0.9451
 Quadrupole moment (field-independent basis, Debye-Ang):
   XX=             -9.2051   YY=            -15.1472   ZZ=            -24.6053
   XY=              2.5609   XZ=              0.1922   YZ=              0.0213
 Traceless Quadrupole moment (field-independent basis, Debye-Ang):
   XX=              7.1141   YY=              1.1720   ZZ=             -8.2861
   XY=              2.5609   XZ=              0.1922   YZ=              0.0213
 Octapole moment (field-independent basis, Debye-Ang**2):
  XXX=             27.2987  YYY=            -15.8661  ZZZ=             -8.0995  XYY=              9.4127
  XXY=              0.1876  XXZ=              1.7697  XZZ=            -16.0393  YZZ=             20.6130
  YYZ=              5.3750  XYZ=              0.5748
 Hexadecapole moment (field-independent basis, Debye-Ang**3):
 XXXX=           -486.9620 YYYY=           -240.7891 ZZZZ=           -135.2993 XXXY=             23.2023
 XXXZ=             -0.7457 YYYX=             15.3049 YYYZ=              1.0655 ZZZX=              8.1905
 ZZZY=             -1.5671 XXYY=            -43.4221 XXZZ=           -103.7543 YYZZ=            -66.9890
 XXYZ=              3.2785 YYXZ=             -7.5593 ZZXY=             -9.0590
 N-N= 3.019906947940D+02 E-N=-1.895864077519D+03  KE= 5.412810620316D+02
 SC-PCM: Using the SCF Density.
 SC-PCM: The equilibrium contribution to the free energy is   -0.077824966 a.u.
 SC-PCM: The total energy including the PCM contribution is      -544.542170493 a.u.
 SC-PCM: Erms=  0.24127D-04 Emax=  0.15573D-03 Qconv=  0.10000D-06
 SC-PCM: Iterating to achieve self-consistent PCM reaction field, IExtIt=   2.
 Standard basis: Aug-CC-pVDZ (5D, 7F)
 There are   244 symmetry adapted cartesian basis functions of A   symmetry.
 There are   232 symmetry adapted basis functions of A   symmetry.
   232 basis functions,   406 primitive gaussians,   244 cartesian basis functions
    30 alpha electrons       30 beta electrons
       nuclear repulsion energy       306.2959322543 Hartrees.
 NAtoms=   16 NActive=   16 NUniq=   16 SFac= 1.00D+00 NAtFMM=   60 NAOKFM=F Big=F
 Integral buffers will be    131072 words long.
 Raffenetti 2 integral format.
 Two-electron integral symmetry is turned on.
 Nuclei-solvent charges/DBFs interaction =        -4.3159375559 a.u.
 Nuclear repulsion after self-consistent solvent charges =      301.9799946984 Hartrees.
 Nuclear repulsion after empirical dispersion term =      301.9704242710 Hartrees.
 One-electron integrals computed using PRISM.
 NBasis=   232 RedAO= T EigKep=  1.91D-04  NBF=   232
 NBsUse=   232 1.00D-06 EigRej= -1.00D+00 NBFU=   232
 Initial guess from the checkpoint file:  "sim002_type3_coord-5_3-1-1_10C_b1_id81771_step1460_2.chk"
 SCF N**3 symmetry information disabled.
 B after Tr=     0.000000    0.000000    0.000000
         Rot=    1.000000    0.000000    0.000000    0.000000 Ang=   0.00 deg.
 ExpMin= 6.16D-03 ExpMax= 3.17D+04 ExpMxC= 1.08D+03 IAcc=3 IRadAn=         5 AccDes= 0.00D+00
 Harris functional with IExCor=  402 and IRadAn=       5 diagonalized for initial guess.
 HarFok:  IExCor=  402 AccDes= 0.00D+00 IRadAn=         5 IDoV= 1 UseB2=F ITyADJ=14
 ICtDFT=  3500011 ScaDFX=  1.000000  1.000000  1.000000  1.000000
 FoFCou: FMM=F IPFlag=           0 FMFlag=      100000 FMFlg1=           0
         NFxFlg=           0 DoJE=T BraDBF=F KetDBF=T FulRan=T
         wScrn=  0.000000 ICntrl=       500 IOpCl=  0 I1Cent=   200000004 NGrid=           0
         NMat0=    1 NMatS0=      1 NMatT0=    0 NMatD0=    1 NMtDS0=    0 NMtDT0=    0
 Petite list used in FoFCou.
 Requested convergence on RMS density matrix=1.00D-08 within 500 cycles.
 Requested convergence on MAX density matrix=1.00D-06.
 Requested convergence on             energy=1.00D-06.
 No special actions if energy rises.
 SCF Done:  E(RB3LYP) =  -544.542158636     A.U. after    8 cycles
            NFock=  8  Conv=0.59D-09     -V/T= 2.0060

 **********************************************************************

            Population analysis using the SCF Density.

 **********************************************************************

 Orbital symmetries:
       Occupied  (A) (A) (A) (A) (A) (A) (A) (A) (A) (A) (A) (A)
                 (A) (A) (A) (A) (A) (A) (A) (A) (A) (A) (A) (A)
                 (A) (A) (A) (A) (A) (A)
       Virtual   (A) (A) (A) (A) (A) (A) (A) (A) (A) (A) (A) (A)
                 (A) (A) (A) (A) (A) (A) (A) (A) (A) (A) (A) (A)
                 (A) (A) (A) (A) (A) (A) (A) (A) (A) (A) (A) (A)
                 (A) (A) (A) (A) (A) (A) (A) (A) (A) (A) (A) (A)
                 (A) (A) (A) (A) (A) (A) (A) (A) (A) (A) (A) (A)
                 (A) (A) (A) (A) (A) (A) (A) (A) (A) (A) (A) (A)
                 (A) (A) (A) (A) (A) (A) (A) (A) (A) (A) (A) (A)
                 (A) (A) (A) (A) (A) (A) (A) (A) (A) (A) (A) (A)
                 (A) (A) (A) (A) (A) (A) (A) (A) (A) (A) (A) (A)
                 (A) (A) (A) (A) (A) (A) (A) (A) (A) (A) (A) (A)
                 (A) (A) (A) (A) (A) (A) (A) (A) (A) (A) (A) (A)
                 (A) (A) (A) (A) (A) (A) (A) (A) (A) (A) (A) (A)
                 (A) (A) (A) (A) (A) (A) (A) (A) (A) (A) (A) (A)
                 (A) (A) (A) (A) (A) (A) (A) (A) (A) (A) (A) (A)
                 (A) (A) (A) (A) (A) (A) (A) (A) (A) (A) (A) (A)
                 (A) (A) (A) (A) (A) (A) (A) (A) (A) (A) (A) (A)
                 (A) (A) (A) (A) (A) (A) (A) (A) (A) (A)
 The electronic state is 1-A.
 Alpha  occ. eigenvalues --  -38.43693 -19.17655 -19.17395 -19.17361 -19.17289
 Alpha  occ. eigenvalues --  -19.17234  -2.17154  -1.10554  -1.10429  -1.10418
 Alpha  occ. eigenvalues --   -1.03978  -1.03768  -1.03375  -1.03287  -1.03157
 Alpha  occ. eigenvalues --   -0.56199  -0.55387  -0.55226  -0.55076  -0.54998
 Alpha  occ. eigenvalues --   -0.43423  -0.42509  -0.42011  -0.41815  -0.41801
 Alpha  occ. eigenvalues --   -0.34508  -0.34284  -0.34154  -0.34072  -0.34067
 Alpha virt. eigenvalues --   -0.03703  -0.01688  -0.00992  -0.00463   0.01254
 Alpha virt. eigenvalues --    0.01834   0.01861   0.01960   0.02071   0.03439
 Alpha virt. eigenvalues --    0.03626   0.03957   0.04073   0.05605   0.05987
 Alpha virt. eigenvalues --    0.06229   0.06639   0.07701   0.11072   0.12017
 Alpha virt. eigenvalues --    0.12110   0.12313   0.12651   0.13023   0.13304
 Alpha virt. eigenvalues --    0.13986   0.14351   0.15016   0.15184   0.15485
 Alpha virt. eigenvalues --    0.15922   0.16201   0.16397   0.16954   0.17483
 Alpha virt. eigenvalues --    0.18083   0.18352   0.19534   0.20186   0.20687
 Alpha virt. eigenvalues --    0.21416   0.22417   0.24397   0.25277   0.25847
 Alpha virt. eigenvalues --    0.26195   0.26625   0.27992   0.29702   0.29931
 Alpha virt. eigenvalues --    0.31311   0.31802   0.32642   0.34460   0.35312
 Alpha virt. eigenvalues --    0.35938   0.36511   0.37735   0.38600   0.39734
 Alpha virt. eigenvalues --    0.39850   0.41146   0.41563   0.43386   0.43627
 Alpha virt. eigenvalues --    0.44435   0.45340   0.46092   0.46507   0.47002
 Alpha virt. eigenvalues --    0.47574   0.48131   0.48249   0.49462   0.49922
 Alpha virt. eigenvalues --    0.50480   0.51093   0.52146   0.53014   0.53518
 Alpha virt. eigenvalues --    0.54462   0.55983   0.57121   0.57708   0.59394
 Alpha virt. eigenvalues --    0.60472   0.61556   0.62079   0.64653   0.69709
 Alpha virt. eigenvalues --    0.69966   0.72203   0.72386   0.74125   0.75237
 Alpha virt. eigenvalues --    0.75936   0.82445   0.84099   0.85572   0.85903
 Alpha virt. eigenvalues --    0.87708   0.93594   0.94360   0.94758   0.97146
 Alpha virt. eigenvalues --    0.98176   0.99387   0.99405   1.00551   1.02065
 Alpha virt. eigenvalues --    1.03602   1.04513   1.06361   1.07264   1.07602
 Alpha virt. eigenvalues --    1.10300   1.16398   1.18863   1.19198   1.22078
 Alpha virt. eigenvalues --    1.23462   1.24579   1.27611   1.31202   1.31616
 Alpha virt. eigenvalues --    1.32642   1.34679   1.38025   1.40681   1.41566
 Alpha virt. eigenvalues --    1.44371   1.49909   1.58340   1.63176   1.64835
 Alpha virt. eigenvalues --    1.69586   1.75732   1.77904   1.78620   1.79510
 Alpha virt. eigenvalues --    1.80616   1.82226   1.85894   1.86300   1.87074
 Alpha virt. eigenvalues --    1.90024   1.90171   1.90535   1.91097   1.91726
 Alpha virt. eigenvalues --    1.93402   2.12247   2.13942   2.15620   2.16216
 Alpha virt. eigenvalues --    2.16655   2.17511   2.19097   2.19749   2.20617
 Alpha virt. eigenvalues --    2.21915   2.29743   2.33206   2.34718   2.35101
 Alpha virt. eigenvalues --    2.37979   2.47993   2.49826   2.54002   2.54377
 Alpha virt. eigenvalues --    2.55216   2.64156   2.73850   2.74337   2.77976
 Alpha virt. eigenvalues --    2.82342   2.95395   3.29787   3.30400   3.31322
 Alpha virt. eigenvalues --    3.31763   3.33092   3.33624   3.35052   3.35878
 Alpha virt. eigenvalues --    3.36458   3.38335   3.39411   3.41322   3.42587
 Alpha virt. eigenvalues --    3.43466   3.46728   3.67037   3.68300   3.71800
 Alpha virt. eigenvalues --    3.72791   3.73748   3.89584   3.89774   3.93666
 Alpha virt. eigenvalues --    3.94258   3.94362
          Condensed to atoms (all electrons):
               1          2          3          4          5          6
     1  O    7.822770  -0.006774   0.298818  -0.006432  -0.000599   0.000047
     2  O   -0.006774   7.945120   0.000424  -0.025964  -0.005153   0.004523
     3  H    0.298818   0.000424   0.585681  -0.000291  -0.000043   0.000091
     4  O   -0.006432  -0.025964  -0.000291   7.880845   0.386222   0.263166
     5  H   -0.000599  -0.005153  -0.000043   0.386222   0.576323  -0.126429
     6  H    0.000047   0.004523   0.000091   0.263166  -0.126429   0.610789
     7  H    0.371513   0.000174  -0.102695  -0.000946  -0.000476   0.000217
     8  H    0.001925   0.261959   0.000238   0.003599  -0.000204   0.000840
     9  H   -0.000227   0.363810  -0.000191   0.003963   0.002265   0.000657
    10  O   -0.033744  -0.017693   0.002262  -0.008740  -0.002183   0.003561
    11  H    0.000457   0.002488   0.000546   0.000314  -0.000240   0.000208
    12  H    0.001820   0.001172   0.000442   0.000412  -0.000655   0.000408
    13  O   -0.013628  -0.024241   0.002575  -0.016209   0.010541   0.001420
    14  H   -0.002368   0.008617  -0.000027  -0.000412   0.001917  -0.000253
    15  H    0.004044   0.003085   0.000392   0.002679   0.001720   0.000405
    16  Na  -0.079074  -0.085739   0.020540  -0.074249  -0.048020   0.028290
               7          8          9         10         11         12
     1  O    0.371513   0.001925  -0.000227  -0.033744   0.000457   0.001820
     2  O    0.000174   0.261959   0.363810  -0.017693   0.002488   0.001172
     3  H   -0.102695   0.000238  -0.000191   0.002262   0.000546   0.000442
     4  O   -0.000946   0.003599   0.003963  -0.008740   0.000314   0.000412
     5  H   -0.000476  -0.000204   0.002265  -0.002183  -0.000240  -0.000655
     6  H    0.000217   0.000840   0.000657   0.003561   0.000208   0.000408
     7  H    0.587387   0.000286  -0.000392   0.012856   0.001188   0.001544
     8  H    0.000286   0.603451  -0.119188   0.000038  -0.000054   0.000153
     9  H   -0.000392  -0.119188   0.561389   0.001083  -0.000029  -0.000169
    10  O    0.012856   0.000038   0.001083   7.927912   0.303732   0.304794
    11  H    0.001188  -0.000054  -0.000029   0.303732   0.566427  -0.094886
    12  H    0.001544   0.000153  -0.000169   0.304794  -0.094886   0.569713
    13  O   -0.001518   0.003218  -0.001477  -0.008662  -0.000523  -0.000686
    14  H   -0.000398   0.000921   0.002739  -0.000886  -0.000034  -0.000180
    15  H   -0.000191   0.000840  -0.000025  -0.000606   0.000038  -0.000049
    16  Na  -0.043470   0.028544  -0.033527  -0.083946   0.009748   0.009865
              13         14         15         16
     1  O   -0.013628  -0.002368   0.004044  -0.079074
     2  O   -0.024241   0.008617   0.003085  -0.085739
     3  H    0.002575  -0.000027   0.000392   0.020540
     4  O   -0.016209  -0.000412   0.002679  -0.074249
     5  H    0.010541   0.001917   0.001720  -0.048020
     6  H    0.001420  -0.000253   0.000405   0.028290
     7  H   -0.001518  -0.000398  -0.000191  -0.043470
     8  H    0.003218   0.000921   0.000840   0.028544
     9  H   -0.001477   0.002739  -0.000025  -0.033527
    10  O   -0.008662  -0.000886  -0.000606  -0.083946
    11  H   -0.000523  -0.000034   0.000038   0.009748
    12  H   -0.000686  -0.000180  -0.000049   0.009865
    13  O    7.979615   0.378906   0.254595  -0.103157
    14  H    0.378906   0.560244  -0.116478  -0.043911
    15  H    0.254595  -0.116478   0.592931   0.027144
    16  Na  -0.103157  -0.043911   0.027144  10.492092
 Mulliken charges:
               1
     1  O   -0.358548
     2  O   -0.425807
     3  H    0.191241
     4  O   -0.407959
     5  H    0.205014
     6  H    0.212060
     7  H    0.174919
     8  H    0.213435
     9  H    0.219321
    10  O   -0.399778
    11  H    0.210619
    12  H    0.206302
    13  O   -0.460767
    14  H    0.211603
    15  H    0.229476
    16  Na   0.978870
 Sum of Mulliken charges =   1.00000
 Mulliken charges with hydrogens summed into heavy atoms:
               1
     1  O    0.007612
     2  O    0.006949
     4  O    0.009115
    10  O    0.017143
    13  O   -0.019689
    16  Na   0.978870
 Electronic spatial extent (au):  <R**2>=           1157.5124
 Charge=              1.0000 electrons
 Dipole moment (field-independent basis, Debye):
    X=              0.4928    Y=              0.8038    Z=             -0.1291  Tot=              0.9517
 Quadrupole moment (field-independent basis, Debye-Ang):
   XX=             -9.2827   YY=            -15.1844   ZZ=            -24.6147
   XY=              2.5741   XZ=              0.1940   YZ=              0.0213
 Traceless Quadrupole moment (field-independent basis, Debye-Ang):
   XX=              7.0778   YY=              1.1762   ZZ=             -8.2541
   XY=              2.5741   XZ=              0.1940   YZ=              0.0213
 Octapole moment (field-independent basis, Debye-Ang**2):
  XXX=             27.2845  YYY=            -15.8126  ZZZ=             -8.0837  XYY=              9.3882
  XXY=              0.2014  XXZ=              1.7654  XZZ=            -16.0032  YZZ=             20.6041
  YYZ=              5.3617  XYZ=              0.5739
 Hexadecapole moment (field-independent basis, Debye-Ang**3):
 XXXX=           -487.7457 YYYY=           -241.0981 ZZZZ=           -135.3821 XXXY=             23.2323
 XXXZ=             -0.7248 YYYX=             15.3973 YYYZ=              1.0596 ZZZX=              8.1673
 ZZZY=             -1.5659 XXYY=            -43.7485 XXZZ=           -103.8814 YYZZ=            -67.0363
 XXYZ=              3.2797 YYXZ=             -7.5299 ZZXY=             -9.0193
 N-N= 3.019704242710D+02 E-N=-1.895852709731D+03  KE= 5.412812016390D+02
 SC-PCM: Using the SCF Density.
 SC-PCM: The equilibrium contribution to the free energy is   -0.077852172 a.u.
 SC-PCM: The total energy including the PCM contribution is      -544.542172378 a.u.
 SC-PCM: Erms=  0.31697D-05 Emax=  0.15606D-04 Qconv=  0.10000D-06
 SC-PCM: Iterating to achieve self-consistent PCM reaction field, IExtIt=   3.
 Standard basis: Aug-CC-pVDZ (5D, 7F)
 There are   244 symmetry adapted cartesian basis functions of A   symmetry.
 There are   232 symmetry adapted basis functions of A   symmetry.
   232 basis functions,   406 primitive gaussians,   244 cartesian basis functions
    30 alpha electrons       30 beta electrons
       nuclear repulsion energy       306.2959322543 Hartrees.
 NAtoms=   16 NActive=   16 NUniq=   16 SFac= 1.00D+00 NAtFMM=   60 NAOKFM=F Big=F
 Integral buffers will be    131072 words long.
 Raffenetti 2 integral format.
 Two-electron integral symmetry is turned on.
 Nuclei-solvent charges/DBFs interaction =        -4.3190192233 a.u.
 Nuclear repulsion after self-consistent solvent charges =      301.9769130310 Hartrees.
 Nuclear repulsion after empirical dispersion term =      301.9673426036 Hartrees.
 One-electron integrals computed using PRISM.
 NBasis=   232 RedAO= T EigKep=  1.91D-04  NBF=   232
 NBsUse=   232 1.00D-06 EigRej= -1.00D+00 NBFU=   232
 Initial guess from the checkpoint file:  "sim002_type3_coord-5_3-1-1_10C_b1_id81771_step1460_2.chk"
 SCF N**3 symmetry information disabled.
 B after Tr=     0.000000    0.000000    0.000000
         Rot=    1.000000    0.000000    0.000000    0.000000 Ang=   0.00 deg.
 Requested convergence on RMS density matrix=1.00D-08 within 500 cycles.
 Requested convergence on MAX density matrix=1.00D-06.
 Requested convergence on             energy=1.00D-06.
 No special actions if energy rises.
 SCF Done:  E(RB3LYP) =  -544.542170493     A.U. after    5 cycles
            NFock=  5  Conv=0.62D-08     -V/T= 2.0060

 **********************************************************************

            Population analysis using the SCF Density.

 **********************************************************************

 Orbital symmetries:
       Occupied  (A) (A) (A) (A) (A) (A) (A) (A) (A) (A) (A) (A)
                 (A) (A) (A) (A) (A) (A) (A) (A) (A) (A) (A) (A)
                 (A) (A) (A) (A) (A) (A)
       Virtual   (A) (A) (A) (A) (A) (A) (A) (A) (A) (A) (A) (A)
                 (A) (A) (A) (A) (A) (A) (A) (A) (A) (A) (A) (A)
                 (A) (A) (A) (A) (A) (A) (A) (A) (A) (A) (A) (A)
                 (A) (A) (A) (A) (A) (A) (A) (A) (A) (A) (A) (A)
                 (A) (A) (A) (A) (A) (A) (A) (A) (A) (A) (A) (A)
                 (A) (A) (A) (A) (A) (A) (A) (A) (A) (A) (A) (A)
                 (A) (A) (A) (A) (A) (A) (A) (A) (A) (A) (A) (A)
                 (A) (A) (A) (A) (A) (A) (A) (A) (A) (A) (A) (A)
                 (A) (A) (A) (A) (A) (A) (A) (A) (A) (A) (A) (A)
                 (A) (A) (A) (A) (A) (A) (A) (A) (A) (A) (A) (A)
                 (A) (A) (A) (A) (A) (A) (A) (A) (A) (A) (A) (A)
                 (A) (A) (A) (A) (A) (A) (A) (A) (A) (A) (A) (A)
                 (A) (A) (A) (A) (A) (A) (A) (A) (A) (A) (A) (A)
                 (A) (A) (A) (A) (A) (A) (A) (A) (A) (A) (A) (A)
                 (A) (A) (A) (A) (A) (A) (A) (A) (A) (A) (A) (A)
                 (A) (A) (A) (A) (A) (A) (A) (A) (A) (A) (A) (A)
                 (A) (A) (A) (A) (A) (A) (A) (A) (A) (A)
 The electronic state is 1-A.
 Alpha  occ. eigenvalues --  -38.43679 -19.17646 -19.17392 -19.17356 -19.17285
 Alpha  occ. eigenvalues --  -19.17230  -2.17140  -1.10540  -1.10415  -1.10403
 Alpha  occ. eigenvalues --   -1.03973  -1.03761  -1.03370  -1.03282  -1.03153
 Alpha  occ. eigenvalues --   -0.56195  -0.55382  -0.55217  -0.55072  -0.54994
 Alpha  occ. eigenvalues --   -0.43416  -0.42503  -0.42005  -0.41810  -0.41795
 Alpha  occ. eigenvalues --   -0.34500  -0.34281  -0.34149  -0.34067  -0.34061
 Alpha virt. eigenvalues --   -0.03700  -0.01687  -0.00991  -0.00461   0.01254
 Alpha virt. eigenvalues --    0.01835   0.01861   0.01961   0.02072   0.03442
 Alpha virt. eigenvalues --    0.03626   0.03959   0.04075   0.05605   0.05988
 Alpha virt. eigenvalues --    0.06230   0.06641   0.07702   0.11074   0.12020
 Alpha virt. eigenvalues --    0.12113   0.12318   0.12656   0.13029   0.13309
 Alpha virt. eigenvalues --    0.13992   0.14355   0.15018   0.15187   0.15489
 Alpha virt. eigenvalues --    0.15923   0.16203   0.16399   0.16958   0.17486
 Alpha virt. eigenvalues --    0.18084   0.18357   0.19536   0.20188   0.20692
 Alpha virt. eigenvalues --    0.21421   0.22421   0.24398   0.25279   0.25852
 Alpha virt. eigenvalues --    0.26200   0.26629   0.27995   0.29708   0.29936
 Alpha virt. eigenvalues --    0.31318   0.31809   0.32649   0.34465   0.35316
 Alpha virt. eigenvalues --    0.35944   0.36518   0.37740   0.38605   0.39737
 Alpha virt. eigenvalues --    0.39856   0.41151   0.41566   0.43389   0.43632
 Alpha virt. eigenvalues --    0.44439   0.45342   0.46095   0.46510   0.47006
 Alpha virt. eigenvalues --    0.47577   0.48135   0.48252   0.49466   0.49924
 Alpha virt. eigenvalues --    0.50485   0.51097   0.52149   0.53017   0.53520
 Alpha virt. eigenvalues --    0.54466   0.55988   0.57124   0.57711   0.59399
 Alpha virt. eigenvalues --    0.60475   0.61559   0.62081   0.64655   0.69713
 Alpha virt. eigenvalues --    0.69967   0.72205   0.72392   0.74128   0.75241
 Alpha virt. eigenvalues --    0.75941   0.82448   0.84104   0.85578   0.85908
 Alpha virt. eigenvalues --    0.87714   0.93599   0.94366   0.94764   0.97151
 Alpha virt. eigenvalues --    0.98181   0.99393   0.99411   1.00556   1.02069
 Alpha virt. eigenvalues --    1.03607   1.04519   1.06366   1.07269   1.07609
 Alpha virt. eigenvalues --    1.10304   1.16404   1.18868   1.19203   1.22083
 Alpha virt. eigenvalues --    1.23467   1.24584   1.27616   1.31208   1.31623
 Alpha virt. eigenvalues --    1.32647   1.34685   1.38031   1.40687   1.41572
 Alpha virt. eigenvalues --    1.44378   1.49916   1.58346   1.63184   1.64841
 Alpha virt. eigenvalues --    1.69592   1.75740   1.77908   1.78624   1.79514
 Alpha virt. eigenvalues --    1.80620   1.82230   1.85900   1.86304   1.87078
 Alpha virt. eigenvalues --    1.90028   1.90173   1.90539   1.91104   1.91731
 Alpha virt. eigenvalues --    1.93404   2.12253   2.13946   2.15625   2.16221
 Alpha virt. eigenvalues --    2.16659   2.17516   2.19100   2.19754   2.20620
 Alpha virt. eigenvalues --    2.21918   2.29750   2.33208   2.34720   2.35104
 Alpha virt. eigenvalues --    2.37982   2.48000   2.49830   2.54007   2.54381
 Alpha virt. eigenvalues --    2.55220   2.64162   2.73854   2.74343   2.77980
 Alpha virt. eigenvalues --    2.82348   2.95403   3.29795   3.30405   3.31326
 Alpha virt. eigenvalues --    3.31769   3.33098   3.33630   3.35057   3.35883
 Alpha virt. eigenvalues --    3.36463   3.38342   3.39416   3.41327   3.42593
 Alpha virt. eigenvalues --    3.43472   3.46732   3.67046   3.68304   3.71805
 Alpha virt. eigenvalues --    3.72795   3.73752   3.89590   3.89782   3.93671
 Alpha virt. eigenvalues --    3.94262   3.94367
          Condensed to atoms (all electrons):
               1          2          3          4          5          6
     1  O    7.822890  -0.006779   0.298797  -0.006435  -0.000600   0.000047
     2  O   -0.006779   7.945143   0.000424  -0.025960  -0.005149   0.004522
     3  H    0.298797   0.000424   0.585802  -0.000291  -0.000043   0.000091
     4  O   -0.006435  -0.025960  -0.000291   7.880915   0.386215   0.263146
     5  H   -0.000600  -0.005149  -0.000043   0.386215   0.576380  -0.126426
     6  H    0.000047   0.004522   0.000091   0.263146  -0.126426   0.610846
     7  H    0.371490   0.000173  -0.102692  -0.000946  -0.000476   0.000217
     8  H    0.001924   0.261947   0.000238   0.003601  -0.000205   0.000840
     9  H   -0.000228   0.363807  -0.000191   0.003964   0.002267   0.000657
    10  O   -0.033757  -0.017684   0.002267  -0.008734  -0.002185   0.003560
    11  H    0.000458   0.002487   0.000546   0.000315  -0.000240   0.000207
    12  H    0.001823   0.001171   0.000441   0.000412  -0.000655   0.000408
    13  O   -0.013635  -0.024234   0.002575  -0.016207   0.010542   0.001422
    14  H   -0.002370   0.008619  -0.000027  -0.000411   0.001919  -0.000254
    15  H    0.004045   0.003087   0.000392   0.002679   0.001719   0.000405
    16  Na  -0.079171  -0.085783   0.020549  -0.074318  -0.048026   0.028296
               7          8          9         10         11         12
     1  O    0.371490   0.001924  -0.000228  -0.033757   0.000458   0.001823
     2  O    0.000173   0.261947   0.363807  -0.017684   0.002487   0.001171
     3  H   -0.102692   0.000238  -0.000191   0.002267   0.000546   0.000441
     4  O   -0.000946   0.003601   0.003964  -0.008734   0.000315   0.000412
     5  H   -0.000476  -0.000205   0.002267  -0.002185  -0.000240  -0.000655
     6  H    0.000217   0.000840   0.000657   0.003560   0.000207   0.000408
     7  H    0.587419   0.000286  -0.000392   0.012857   0.001188   0.001545
     8  H    0.000286   0.603500  -0.119182   0.000037  -0.000054   0.000152
     9  H   -0.000392  -0.119182   0.561426   0.001080  -0.000028  -0.000169
    10  O    0.012857   0.000037   0.001080   7.928046   0.303715   0.304771
    11  H    0.001188  -0.000054  -0.000028   0.303715   0.566468  -0.094879
    12  H    0.001545   0.000152  -0.000169   0.304771  -0.094879   0.569758
    13  O   -0.001519   0.003217  -0.001473  -0.008662  -0.000523  -0.000686
    14  H   -0.000399   0.000920   0.002739  -0.000886  -0.000034  -0.000180
    15  H   -0.000191   0.000840  -0.000026  -0.000606   0.000038  -0.000049
    16  Na  -0.043452   0.028546  -0.033527  -0.084021   0.009752   0.009870
              13         14         15         16
     1  O   -0.013635  -0.002370   0.004045  -0.079171
     2  O   -0.024234   0.008619   0.003087  -0.085783
     3  H    0.002575  -0.000027   0.000392   0.020549
     4  O   -0.016207  -0.000411   0.002679  -0.074318
     5  H    0.010542   0.001919   0.001719  -0.048026
     6  H    0.001422  -0.000254   0.000405   0.028296
     7  H   -0.001519  -0.000399  -0.000191  -0.043452
     8  H    0.003217   0.000920   0.000840   0.028546
     9  H   -0.001473   0.002739  -0.000026  -0.033527
    10  O   -0.008662  -0.000886  -0.000606  -0.084021
    11  H   -0.000523  -0.000034   0.000038   0.009752
    12  H   -0.000686  -0.000180  -0.000049   0.009870
    13  O    7.979685   0.378910   0.254569  -0.103224
    14  H    0.378910   0.560265  -0.116478  -0.043915
    15  H    0.254569  -0.116478   0.593006   0.027154
    16  Na  -0.103224  -0.043915   0.027154  10.491986
 Mulliken charges:
               1
     1  O   -0.358498
     2  O   -0.425792
     3  H    0.191123
     4  O   -0.407947
     5  H    0.204962
     6  H    0.212017
     7  H    0.174890
     8  H    0.213393
     9  H    0.219277
    10  O   -0.399799
    11  H    0.210585
    12  H    0.206267
    13  O   -0.460758
    14  H    0.211580
    15  H    0.229416
    16  Na   0.979284
 Sum of Mulliken charges =   1.00000
 Mulliken charges with hydrogens summed into heavy atoms:
               1
     1  O    0.007515
     2  O    0.006879
     4  O    0.009032
    10  O    0.017053
    13  O   -0.019762
    16  Na   0.979284
 Electronic spatial extent (au):  <R**2>=           1157.5289
 Charge=              1.0000 electrons
 Dipole moment (field-independent basis, Debye):
    X=              0.4941    Y=              0.8043    Z=             -0.1289  Tot=              0.9527
 Quadrupole moment (field-independent basis, Debye-Ang):
   XX=             -9.2986   YY=            -15.1895   ZZ=            -24.6158
   XY=              2.5758   XZ=              0.1940   YZ=              0.0213
 Traceless Quadrupole moment (field-independent basis, Debye-Ang):
   XX=              7.0694   YY=              1.1785   ZZ=             -8.2478
   XY=              2.5758   XZ=              0.1940   YZ=              0.0213
 Octapole moment (field-independent basis, Debye-Ang**2):
  XXX=             27.2834  YYY=            -15.8058  ZZZ=             -8.0814  XYY=              9.3841
  XXY=              0.2020  XXZ=              1.7650  XZZ=            -15.9965  YZZ=             20.6022
  YYZ=              5.3604  XYZ=              0.5737
 Hexadecapole moment (field-independent basis, Debye-Ang**3):
 XXXX=           -487.9058 YYYY=           -241.1427 ZZZZ=           -135.3932 XXXY=             23.2337
 XXXZ=             -0.7226 YYYX=             15.4086 YYYZ=              1.0589 ZZZX=              8.1633
 ZZZY=             -1.5653 XXYY=            -43.8079 XXZZ=           -103.9054 YYZZ=            -67.0427
 XXYZ=              3.2793 YYXZ=             -7.5267 ZZXY=             -9.0129
 N-N= 3.019673426036D+02 E-N=-1.895850752167D+03  KE= 5.412812524918D+02
 SC-PCM: Using the SCF Density.
 SC-PCM: The equilibrium contribution to the free energy is   -0.077856057 a.u.
 SC-PCM: The total energy including the PCM contribution is      -544.542172440 a.u.
 SC-PCM: Erms=  0.57880D-06 Emax=  0.27836D-05 Qconv=  0.10000D-06
 SC-PCM: Iterating to achieve self-consistent PCM reaction field, IExtIt=   4.
 Standard basis: Aug-CC-pVDZ (5D, 7F)
 There are   244 symmetry adapted cartesian basis functions of A   symmetry.
 There are   232 symmetry adapted basis functions of A   symmetry.
   232 basis functions,   406 primitive gaussians,   244 cartesian basis functions
    30 alpha electrons       30 beta electrons
       nuclear repulsion energy       306.2959322543 Hartrees.
 NAtoms=   16 NActive=   16 NUniq=   16 SFac= 1.00D+00 NAtFMM=   60 NAOKFM=F Big=F
 Integral buffers will be    131072 words long.
 Raffenetti 2 integral format.
 Two-electron integral symmetry is turned on.
 Nuclei-solvent charges/DBFs interaction =        -4.3195683100 a.u.
 Nuclear repulsion after self-consistent solvent charges =      301.9763639443 Hartrees.
 Nuclear repulsion after empirical dispersion term =      301.9667935169 Hartrees.
 One-electron integrals computed using PRISM.
 NBasis=   232 RedAO= T EigKep=  1.91D-04  NBF=   232
 NBsUse=   232 1.00D-06 EigRej= -1.00D+00 NBFU=   232
 Initial guess from the checkpoint file:  "sim002_type3_coord-5_3-1-1_10C_b1_id81771_step1460_2.chk"
 SCF N**3 symmetry information disabled.
 B after Tr=     0.000000    0.000000    0.000000
         Rot=    1.000000    0.000000    0.000000    0.000000 Ang=   0.00 deg.
 Requested convergence on RMS density matrix=1.00D-08 within 500 cycles.
 Requested convergence on MAX density matrix=1.00D-06.
 Requested convergence on             energy=1.00D-06.
 No special actions if energy rises.
 SCF Done:  E(RB3LYP) =  -544.542172099     A.U. after    5 cycles
            NFock=  5  Conv=0.11D-08     -V/T= 2.0060

 **********************************************************************

            Population analysis using the SCF Density.

 **********************************************************************

 Orbital symmetries:
       Occupied  (A) (A) (A) (A) (A) (A) (A) (A) (A) (A) (A) (A)
                 (A) (A) (A) (A) (A) (A) (A) (A) (A) (A) (A) (A)
                 (A) (A) (A) (A) (A) (A)
       Virtual   (A) (A) (A) (A) (A) (A) (A) (A) (A) (A) (A) (A)
                 (A) (A) (A) (A) (A) (A) (A) (A) (A) (A) (A) (A)
                 (A) (A) (A) (A) (A) (A) (A) (A) (A) (A) (A) (A)
                 (A) (A) (A) (A) (A) (A) (A) (A) (A) (A) (A) (A)
                 (A) (A) (A) (A) (A) (A) (A) (A) (A) (A) (A) (A)
                 (A) (A) (A) (A) (A) (A) (A) (A) (A) (A) (A) (A)
                 (A) (A) (A) (A) (A) (A) (A) (A) (A) (A) (A) (A)
                 (A) (A) (A) (A) (A) (A) (A) (A) (A) (A) (A) (A)
                 (A) (A) (A) (A) (A) (A) (A) (A) (A) (A) (A) (A)
                 (A) (A) (A) (A) (A) (A) (A) (A) (A) (A) (A) (A)
                 (A) (A) (A) (A) (A) (A) (A) (A) (A) (A) (A) (A)
                 (A) (A) (A) (A) (A) (A) (A) (A) (A) (A) (A) (A)
                 (A) (A) (A) (A) (A) (A) (A) (A) (A) (A) (A) (A)
                 (A) (A) (A) (A) (A) (A) (A) (A) (A) (A) (A) (A)
                 (A) (A) (A) (A) (A) (A) (A) (A) (A) (A) (A) (A)
                 (A) (A) (A) (A) (A) (A) (A) (A) (A) (A) (A) (A)
                 (A) (A) (A) (A) (A) (A) (A) (A) (A) (A)
 The electronic state is 1-A.
 Alpha  occ. eigenvalues --  -38.43677 -19.17645 -19.17392 -19.17356 -19.17284
 Alpha  occ. eigenvalues --  -19.17229  -2.17137  -1.10538  -1.10412  -1.10401
 Alpha  occ. eigenvalues --   -1.03972  -1.03759  -1.03369  -1.03282  -1.03152
 Alpha  occ. eigenvalues --   -0.56194  -0.55381  -0.55215  -0.55071  -0.54994
 Alpha  occ. eigenvalues --   -0.43415  -0.42501  -0.42004  -0.41809  -0.41794
 Alpha  occ. eigenvalues --   -0.34499  -0.34281  -0.34148  -0.34066  -0.34060
 Alpha virt. eigenvalues --   -0.03699  -0.01687  -0.00991  -0.00461   0.01254
 Alpha virt. eigenvalues --    0.01835   0.01862   0.01961   0.02073   0.03443
 Alpha virt. eigenvalues --    0.03626   0.03960   0.04075   0.05605   0.05989
 Alpha virt. eigenvalues --    0.06230   0.06641   0.07703   0.11074   0.12021
 Alpha virt. eigenvalues --    0.12113   0.12319   0.12658   0.13030   0.13310
 Alpha virt. eigenvalues --    0.13993   0.14356   0.15019   0.15188   0.15489
 Alpha virt. eigenvalues --    0.15923   0.16203   0.16400   0.16959   0.17487
 Alpha virt. eigenvalues --    0.18084   0.18358   0.19537   0.20188   0.20692
 Alpha virt. eigenvalues --    0.21422   0.22422   0.24398   0.25280   0.25853
 Alpha virt. eigenvalues --    0.26201   0.26630   0.27996   0.29709   0.29937
 Alpha virt. eigenvalues --    0.31320   0.31810   0.32650   0.34466   0.35316
 Alpha virt. eigenvalues --    0.35944   0.36519   0.37741   0.38605   0.39738
 Alpha virt. eigenvalues --    0.39857   0.41152   0.41567   0.43389   0.43633
 Alpha virt. eigenvalues --    0.44439   0.45342   0.46096   0.46510   0.47006
 Alpha virt. eigenvalues --    0.47578   0.48136   0.48253   0.49466   0.49925
 Alpha virt. eigenvalues --    0.50485   0.51097   0.52149   0.53017   0.53521
 Alpha virt. eigenvalues --    0.54467   0.55989   0.57125   0.57712   0.59400
 Alpha virt. eigenvalues --    0.60475   0.61560   0.62081   0.64656   0.69713
 Alpha virt. eigenvalues --    0.69967   0.72205   0.72393   0.74129   0.75242
 Alpha virt. eigenvalues --    0.75942   0.82449   0.84104   0.85579   0.85909
 Alpha virt. eigenvalues --    0.87715   0.93600   0.94367   0.94765   0.97151
 Alpha virt. eigenvalues --    0.98182   0.99394   0.99412   1.00556   1.02070
 Alpha virt. eigenvalues --    1.03608   1.04520   1.06367   1.07270   1.07610
 Alpha virt. eigenvalues --    1.10305   1.16405   1.18869   1.19204   1.22084
 Alpha virt. eigenvalues --    1.23468   1.24585   1.27617   1.31209   1.31624
 Alpha virt. eigenvalues --    1.32647   1.34686   1.38032   1.40688   1.41573
 Alpha virt. eigenvalues --    1.44379   1.49917   1.58347   1.63185   1.64842
 Alpha virt. eigenvalues --    1.69593   1.75741   1.77908   1.78625   1.79515
 Alpha virt. eigenvalues --    1.80621   1.82230   1.85901   1.86305   1.87079
 Alpha virt. eigenvalues --    1.90028   1.90174   1.90539   1.91105   1.91732
 Alpha virt. eigenvalues --    1.93405   2.12255   2.13946   2.15625   2.16222
 Alpha virt. eigenvalues --    2.16660   2.17516   2.19101   2.19755   2.20621
 Alpha virt. eigenvalues --    2.21919   2.29751   2.33209   2.34721   2.35105
 Alpha virt. eigenvalues --    2.37983   2.48002   2.49831   2.54008   2.54381
 Alpha virt. eigenvalues --    2.55221   2.64163   2.73855   2.74344   2.77980
 Alpha virt. eigenvalues --    2.82349   2.95405   3.29796   3.30406   3.31327
 Alpha virt. eigenvalues --    3.31770   3.33099   3.33631   3.35058   3.35884
 Alpha virt. eigenvalues --    3.36464   3.38343   3.39417   3.41328   3.42594
 Alpha virt. eigenvalues --    3.43473   3.46733   3.67048   3.68305   3.71806
 Alpha virt. eigenvalues --    3.72796   3.73752   3.89591   3.89784   3.93672
 Alpha virt. eigenvalues --    3.94262   3.94368
          Condensed to atoms (all electrons):
               1          2          3          4          5          6
     1  O    7.822908  -0.006780   0.298794  -0.006436  -0.000600   0.000046
     2  O   -0.006780   7.945148   0.000424  -0.025959  -0.005148   0.004522
     3  H    0.298794   0.000424   0.585820  -0.000291  -0.000043   0.000091
     4  O   -0.006436  -0.025959  -0.000291   7.880926   0.386215   0.263142
     5  H   -0.000600  -0.005148  -0.000043   0.386215   0.576394  -0.126426
     6  H    0.000046   0.004522   0.000091   0.263142  -0.126426   0.610854
     7  H    0.371486   0.000173  -0.102691  -0.000946  -0.000476   0.000217
     8  H    0.001924   0.261944   0.000238   0.003602  -0.000205   0.000840
     9  H   -0.000228   0.363806  -0.000191   0.003965   0.002267   0.000656
    10  O   -0.033760  -0.017682   0.002267  -0.008733  -0.002185   0.003560
    11  H    0.000459   0.002486   0.000546   0.000315  -0.000240   0.000207
    12  H    0.001823   0.001171   0.000441   0.000413  -0.000655   0.000408
    13  O   -0.013636  -0.024232   0.002575  -0.016206   0.010542   0.001423
    14  H   -0.002371   0.008619  -0.000027  -0.000411   0.001920  -0.000255
    15  H    0.004045   0.003087   0.000392   0.002679   0.001719   0.000405
    16  Na  -0.079187  -0.085791   0.020550  -0.074331  -0.048028   0.028297
               7          8          9         10         11         12
     1  O    0.371486   0.001924  -0.000228  -0.033760   0.000459   0.001823
     2  O    0.000173   0.261944   0.363806  -0.017682   0.002486   0.001171
     3  H   -0.102691   0.000238  -0.000191   0.002267   0.000546   0.000441
     4  O   -0.000946   0.003602   0.003965  -0.008733   0.000315   0.000413
     5  H   -0.000476  -0.000205   0.002267  -0.002185  -0.000240  -0.000655
     6  H    0.000217   0.000840   0.000656   0.003560   0.000207   0.000408
     7  H    0.587427   0.000286  -0.000392   0.012857   0.001188   0.001545
     8  H    0.000286   0.603508  -0.119181   0.000037  -0.000054   0.000152
     9  H   -0.000392  -0.119181   0.561435   0.001080  -0.000028  -0.000169
    10  O    0.012857   0.000037   0.001080   7.928071   0.303711   0.304767
    11  H    0.001188  -0.000054  -0.000028   0.303711   0.566476  -0.094878
    12  H    0.001545   0.000152  -0.000169   0.304767  -0.094878   0.569767
    13  O   -0.001519   0.003216  -0.001472  -0.008662  -0.000523  -0.000686
    14  H   -0.000399   0.000920   0.002739  -0.000886  -0.000034  -0.000180
    15  H   -0.000191   0.000840  -0.000026  -0.000606   0.000038  -0.000049
    16  Na  -0.043449   0.028547  -0.033528  -0.084036   0.009753   0.009871
              13         14         15         16
     1  O   -0.013636  -0.002371   0.004045  -0.079187
     2  O   -0.024232   0.008619   0.003087  -0.085791
     3  H    0.002575  -0.000027   0.000392   0.020550
     4  O   -0.016206  -0.000411   0.002679  -0.074331
     5  H    0.010542   0.001920   0.001719  -0.048028
     6  H    0.001423  -0.000255   0.000405   0.028297
     7  H   -0.001519  -0.000399  -0.000191  -0.043449
     8  H    0.003216   0.000920   0.000840   0.028547
     9  H   -0.001472   0.002739  -0.000026  -0.033528
    10  O   -0.008662  -0.000886  -0.000606  -0.084036
    11  H   -0.000523  -0.000034   0.000038   0.009753
    12  H   -0.000686  -0.000180  -0.000049   0.009871
    13  O    7.979697   0.378912   0.254564  -0.103237
    14  H    0.378912   0.560272  -0.116478  -0.043916
    15  H    0.254564  -0.116478   0.593017   0.027156
    16  Na  -0.103237  -0.043916   0.027156  10.491968
 Mulliken charges:
               1
     1  O   -0.358488
     2  O   -0.425789
     3  H    0.191105
     4  O   -0.407944
     5  H    0.204949
     6  H    0.212012
     7  H    0.174882
     8  H    0.213387
     9  H    0.219267
    10  O   -0.399801
    11  H    0.210578
    12  H    0.206259
    13  O   -0.460756
    14  H    0.211572
    15  H    0.229408
    16  Na   0.979360
 Sum of Mulliken charges =   1.00000
 Mulliken charges with hydrogens summed into heavy atoms:
               1
     1  O    0.007499
     2  O    0.006864
     4  O    0.009017
    10  O    0.017036
    13  O   -0.019776
    16  Na   0.979360
 Electronic spatial extent (au):  <R**2>=           1157.5319
 Charge=              1.0000 electrons
 Dipole moment (field-independent basis, Debye):
    X=              0.4944    Y=              0.8043    Z=             -0.1289  Tot=              0.9529
 Quadrupole moment (field-independent basis, Debye-Ang):
   XX=             -9.3018   YY=            -15.1902   ZZ=            -24.6160
   XY=              2.5760   XZ=              0.1939   YZ=              0.0213
 Traceless Quadrupole moment (field-independent basis, Debye-Ang):
   XX=              7.0675   YY=              1.1791   ZZ=             -8.2467
   XY=              2.5760   XZ=              0.1939   YZ=              0.0213
 Octapole moment (field-independent basis, Debye-Ang**2):
  XXX=             27.2835  YYY=            -15.8050  ZZZ=             -8.0810  XYY=              9.3835
  XXY=              0.2019  XXZ=              1.7650  XZZ=            -15.9952  YZZ=             20.6019
  YYZ=              5.3603  XYZ=              0.5737
 Hexadecapole moment (field-independent basis, Debye-Ang**3):
 XXXX=           -487.9381 YYYY=           -241.1489 ZZZZ=           -135.3948 XXXY=             23.2336
 XXXZ=             -0.7223 YYYX=             15.4102 YYYZ=              1.0588 ZZZX=              8.1625
 ZZZY=             -1.5652 XXYY=            -43.8185 XXZZ=           -103.9101 YYZZ=            -67.0436
 XXYZ=              3.2792 YYXZ=             -7.5263 ZZXY=             -9.0119
 N-N= 3.019667935169D+02 E-N=-1.895850397865D+03  KE= 5.412812625754D+02
 SC-PCM: Using the SCF Density.
 SC-PCM: The equilibrium contribution to the free energy is   -0.077856742 a.u.
 SC-PCM: The total energy including the PCM contribution is      -544.542172442 a.u.
 SC-PCM: Erms=  0.11142D-06 Emax=  0.52608D-06 Qconv=  0.10000D-06
 SC-PCM: Iterating to achieve self-consistent PCM reaction field, IExtIt=   5.
 Standard basis: Aug-CC-pVDZ (5D, 7F)
 There are   244 symmetry adapted cartesian basis functions of A   symmetry.
 There are   232 symmetry adapted basis functions of A   symmetry.
   232 basis functions,   406 primitive gaussians,   244 cartesian basis functions
    30 alpha electrons       30 beta electrons
       nuclear repulsion energy       306.2959322543 Hartrees.
 NAtoms=   16 NActive=   16 NUniq=   16 SFac= 1.00D+00 NAtFMM=   60 NAOKFM=F Big=F
 Integral buffers will be    131072 words long.
 Raffenetti 2 integral format.
 Two-electron integral symmetry is turned on.
 Nuclei-solvent charges/DBFs interaction =        -4.3196693105 a.u.
 Nuclear repulsion after self-consistent solvent charges =      301.9762629439 Hartrees.
 Nuclear repulsion after empirical dispersion term =      301.9666925165 Hartrees.
 One-electron integrals computed using PRISM.
 NBasis=   232 RedAO= T EigKep=  1.91D-04  NBF=   232
 NBsUse=   232 1.00D-06 EigRej= -1.00D+00 NBFU=   232
 Initial guess from the checkpoint file:  "sim002_type3_coord-5_3-1-1_10C_b1_id81771_step1460_2.chk"
 SCF N**3 symmetry information disabled.
 B after Tr=     0.000000    0.000000    0.000000
         Rot=    1.000000    0.000000    0.000000    0.000000 Ang=   0.00 deg.
 Requested convergence on RMS density matrix=1.00D-08 within 500 cycles.
 Requested convergence on MAX density matrix=1.00D-06.
 Requested convergence on             energy=1.00D-06.
 No special actions if energy rises.
 SCF Done:  E(RB3LYP) =  -544.542172379     A.U. after    3 cycles
            NFock=  3  Conv=0.61D-08     -V/T= 2.0060

 **********************************************************************

            Population analysis using the SCF Density.

 **********************************************************************

 Orbital symmetries:
       Occupied  (A) (A) (A) (A) (A) (A) (A) (A) (A) (A) (A) (A)
                 (A) (A) (A) (A) (A) (A) (A) (A) (A) (A) (A) (A)
                 (A) (A) (A) (A) (A) (A)
       Virtual   (A) (A) (A) (A) (A) (A) (A) (A) (A) (A) (A) (A)
                 (A) (A) (A) (A) (A) (A) (A) (A) (A) (A) (A) (A)
                 (A) (A) (A) (A) (A) (A) (A) (A) (A) (A) (A) (A)
                 (A) (A) (A) (A) (A) (A) (A) (A) (A) (A) (A) (A)
                 (A) (A) (A) (A) (A) (A) (A) (A) (A) (A) (A) (A)
                 (A) (A) (A) (A) (A) (A) (A) (A) (A) (A) (A) (A)
                 (A) (A) (A) (A) (A) (A) (A) (A) (A) (A) (A) (A)
                 (A) (A) (A) (A) (A) (A) (A) (A) (A) (A) (A) (A)
                 (A) (A) (A) (A) (A) (A) (A) (A) (A) (A) (A) (A)
                 (A) (A) (A) (A) (A) (A) (A) (A) (A) (A) (A) (A)
                 (A) (A) (A) (A) (A) (A) (A) (A) (A) (A) (A) (A)
                 (A) (A) (A) (A) (A) (A) (A) (A) (A) (A) (A) (A)
                 (A) (A) (A) (A) (A) (A) (A) (A) (A) (A) (A) (A)
                 (A) (A) (A) (A) (A) (A) (A) (A) (A) (A) (A) (A)
                 (A) (A) (A) (A) (A) (A) (A) (A) (A) (A) (A) (A)
                 (A) (A) (A) (A) (A) (A) (A) (A) (A) (A) (A) (A)
                 (A) (A) (A) (A) (A) (A) (A) (A) (A) (A)
 The electronic state is 1-A.
 Alpha  occ. eigenvalues --  -38.43676 -19.17644 -19.17392 -19.17355 -19.17283
 Alpha  occ. eigenvalues --  -19.17229  -2.17137  -1.10537  -1.10412  -1.10400
 Alpha  occ. eigenvalues --   -1.03972  -1.03759  -1.03369  -1.03282  -1.03152
 Alpha  occ. eigenvalues --   -0.56194  -0.55381  -0.55215  -0.55071  -0.54994
 Alpha  occ. eigenvalues --   -0.43414  -0.42501  -0.42004  -0.41809  -0.41794
 Alpha  occ. eigenvalues --   -0.34499  -0.34280  -0.34148  -0.34066  -0.34060
 Alpha virt. eigenvalues --   -0.03699  -0.01687  -0.00991  -0.00461   0.01254
 Alpha virt. eigenvalues --    0.01835   0.01862   0.01961   0.02073   0.03443
 Alpha virt. eigenvalues --    0.03626   0.03960   0.04075   0.05605   0.05989
 Alpha virt. eigenvalues --    0.06230   0.06641   0.07703   0.11074   0.12021
 Alpha virt. eigenvalues --    0.12114   0.12319   0.12658   0.13030   0.13310
 Alpha virt. eigenvalues --    0.13993   0.14356   0.15019   0.15188   0.15490
 Alpha virt. eigenvalues --    0.15923   0.16203   0.16400   0.16959   0.17487
 Alpha virt. eigenvalues --    0.18084   0.18358   0.19537   0.20188   0.20693
 Alpha virt. eigenvalues --    0.21422   0.22422   0.24398   0.25280   0.25853
 Alpha virt. eigenvalues --    0.26201   0.26630   0.27996   0.29710   0.29937
 Alpha virt. eigenvalues --    0.31320   0.31810   0.32650   0.34466   0.35316
 Alpha virt. eigenvalues --    0.35945   0.36520   0.37741   0.38606   0.39738
 Alpha virt. eigenvalues --    0.39857   0.41152   0.41567   0.43389   0.43633
 Alpha virt. eigenvalues --    0.44439   0.45342   0.46096   0.46510   0.47006
 Alpha virt. eigenvalues --    0.47578   0.48136   0.48253   0.49467   0.49925
 Alpha virt. eigenvalues --    0.50486   0.51097   0.52149   0.53018   0.53521
 Alpha virt. eigenvalues --    0.54467   0.55990   0.57125   0.57712   0.59400
 Alpha virt. eigenvalues --    0.60475   0.61560   0.62081   0.64656   0.69713
 Alpha virt. eigenvalues --    0.69967   0.72205   0.72393   0.74129   0.75242
 Alpha virt. eigenvalues --    0.75942   0.82449   0.84105   0.85579   0.85909
 Alpha virt. eigenvalues --    0.87715   0.93601   0.94367   0.94765   0.97151
 Alpha virt. eigenvalues --    0.98183   0.99394   0.99412   1.00557   1.02070
 Alpha virt. eigenvalues --    1.03609   1.04520   1.06367   1.07270   1.07610
 Alpha virt. eigenvalues --    1.10305   1.16406   1.18869   1.19204   1.22084
 Alpha virt. eigenvalues --    1.23468   1.24585   1.27618   1.31209   1.31624
 Alpha virt. eigenvalues --    1.32648   1.34687   1.38032   1.40689   1.41574
 Alpha virt. eigenvalues --    1.44379   1.49918   1.58347   1.63186   1.64842
 Alpha virt. eigenvalues --    1.69593   1.75741   1.77908   1.78625   1.79515
 Alpha virt. eigenvalues --    1.80621   1.82231   1.85901   1.86305   1.87079
 Alpha virt. eigenvalues --    1.90028   1.90174   1.90539   1.91105   1.91732
 Alpha virt. eigenvalues --    1.93405   2.12255   2.13946   2.15625   2.16222
 Alpha virt. eigenvalues --    2.16660   2.17517   2.19101   2.19755   2.20621
 Alpha virt. eigenvalues --    2.21919   2.29751   2.33209   2.34721   2.35105
 Alpha virt. eigenvalues --    2.37983   2.48002   2.49831   2.54008   2.54382
 Alpha virt. eigenvalues --    2.55221   2.64163   2.73855   2.74345   2.77980
 Alpha virt. eigenvalues --    2.82349   2.95405   3.29797   3.30406   3.31327
 Alpha virt. eigenvalues --    3.31770   3.33099   3.33631   3.35058   3.35885
 Alpha virt. eigenvalues --    3.36464   3.38344   3.39417   3.41328   3.42594
 Alpha virt. eigenvalues --    3.43473   3.46733   3.67048   3.68305   3.71806
 Alpha virt. eigenvalues --    3.72796   3.73752   3.89591   3.89784   3.93672
 Alpha virt. eigenvalues --    3.94262   3.94368
          Condensed to atoms (all electrons):
               1          2          3          4          5          6
     1  O    7.822912  -0.006780   0.298793  -0.006436  -0.000600   0.000046
     2  O   -0.006780   7.945148   0.000424  -0.025959  -0.005148   0.004522
     3  H    0.298793   0.000424   0.585823  -0.000291  -0.000043   0.000091
     4  O   -0.006436  -0.025959  -0.000291   7.880927   0.386215   0.263141
     5  H   -0.000600  -0.005148  -0.000043   0.386215   0.576397  -0.126426
     6  H    0.000046   0.004522   0.000091   0.263141  -0.126426   0.610856
     7  H    0.371485   0.000173  -0.102691  -0.000946  -0.000476   0.000217
     8  H    0.001924   0.261944   0.000238   0.003602  -0.000205   0.000840
     9  H   -0.000228   0.363806  -0.000191   0.003965   0.002267   0.000656
    10  O   -0.033761  -0.017681   0.002267  -0.008733  -0.002186   0.003560
    11  H    0.000459   0.002486   0.000546   0.000315  -0.000240   0.000207
    12  H    0.001823   0.001171   0.000441   0.000413  -0.000655   0.000408
    13  O   -0.013636  -0.024232   0.002575  -0.016206   0.010542   0.001423
    14  H   -0.002371   0.008620  -0.000027  -0.000411   0.001920  -0.000255
    15  H    0.004045   0.003087   0.000392   0.002679   0.001719   0.000405
    16  Na  -0.079190  -0.085793   0.020550  -0.074333  -0.048028   0.028297
               7          8          9         10         11         12
     1  O    0.371485   0.001924  -0.000228  -0.033761   0.000459   0.001823
     2  O    0.000173   0.261944   0.363806  -0.017681   0.002486   0.001171
     3  H   -0.102691   0.000238  -0.000191   0.002267   0.000546   0.000441
     4  O   -0.000946   0.003602   0.003965  -0.008733   0.000315   0.000413
     5  H   -0.000476  -0.000205   0.002267  -0.002186  -0.000240  -0.000655
     6  H    0.000217   0.000840   0.000656   0.003560   0.000207   0.000408
     7  H    0.587430   0.000286  -0.000392   0.012858   0.001188   0.001545
     8  H    0.000286   0.603510  -0.119181   0.000037  -0.000054   0.000152
     9  H   -0.000392  -0.119181   0.561437   0.001080  -0.000028  -0.000169
    10  O    0.012858   0.000037   0.001080   7.928076   0.303710   0.304766
    11  H    0.001188  -0.000054  -0.000028   0.303710   0.566477  -0.094877
    12  H    0.001545   0.000152  -0.000169   0.304766  -0.094877   0.569769
    13  O   -0.001519   0.003216  -0.001472  -0.008662  -0.000523  -0.000686
    14  H   -0.000399   0.000920   0.002740  -0.000886  -0.000034  -0.000180
    15  H   -0.000191   0.000840  -0.000026  -0.000606   0.000038  -0.000049
    16  Na  -0.043449   0.028547  -0.033528  -0.084038   0.009753   0.009871
              13         14         15         16
     1  O   -0.013636  -0.002371   0.004045  -0.079190
     2  O   -0.024232   0.008620   0.003087  -0.085793
     3  H    0.002575  -0.000027   0.000392   0.020550
     4  O   -0.016206  -0.000411   0.002679  -0.074333
     5  H    0.010542   0.001920   0.001719  -0.048028
     6  H    0.001423  -0.000255   0.000405   0.028297
     7  H   -0.001519  -0.000399  -0.000191  -0.043449
     8  H    0.003216   0.000920   0.000840   0.028547
     9  H   -0.001472   0.002740  -0.000026  -0.033528
    10  O   -0.008662  -0.000886  -0.000606  -0.084038
    11  H   -0.000523  -0.000034   0.000038   0.009753
    12  H   -0.000686  -0.000180  -0.000049   0.009871
    13  O    7.979699   0.378912   0.254562  -0.103240
    14  H    0.378912   0.560275  -0.116478  -0.043916
    15  H    0.254562  -0.116478   0.593019   0.027156
    16  Na  -0.103240  -0.043916   0.027156  10.491965
 Mulliken charges:
               1
     1  O   -0.358486
     2  O   -0.425789
     3  H    0.191102
     4  O   -0.407944
     5  H    0.204946
     6  H    0.212011
     7  H    0.174880
     8  H    0.213386
     9  H    0.219265
    10  O   -0.399801
    11  H    0.210576
    12  H    0.206258
    13  O   -0.460755
    14  H    0.211570
    15  H    0.229407
    16  Na   0.979374
 Sum of Mulliken charges =   1.00000
 Mulliken charges with hydrogens summed into heavy atoms:
               1
     1  O    0.007496
     2  O    0.006862
     4  O    0.009014
    10  O    0.017033
    13  O   -0.019778
    16  Na   0.979374
 Electronic spatial extent (au):  <R**2>=           1157.5325
 Charge=              1.0000 electrons
 Dipole moment (field-independent basis, Debye):
    X=              0.4945    Y=              0.8043    Z=             -0.1289  Tot=              0.9529
 Quadrupole moment (field-independent basis, Debye-Ang):
   XX=             -9.3025   YY=            -15.1903   ZZ=            -24.6160
   XY=              2.5761   XZ=              0.1939   YZ=              0.0213
 Traceless Quadrupole moment (field-independent basis, Debye-Ang):
   XX=              7.0671   YY=              1.1793   ZZ=             -8.2464
   XY=              2.5761   XZ=              0.1939   YZ=              0.0213
 Octapole moment (field-independent basis, Debye-Ang**2):
  XXX=             27.2835  YYY=            -15.8049  ZZZ=             -8.0809  XYY=              9.3834
  XXY=              0.2019  XXZ=              1.7650  XZZ=            -15.9950  YZZ=             20.6019
  YYZ=              5.3603  XYZ=              0.5737
 Hexadecapole moment (field-independent basis, Debye-Ang**3):
 XXXX=           -487.9447 YYYY=           -241.1499 ZZZZ=           -135.3950 XXXY=             23.2335
 XXXZ=             -0.7223 YYYX=             15.4105 YYYZ=              1.0588 ZZZX=              8.1624
 ZZZY=             -1.5652 XXYY=            -43.8205 XXZZ=           -103.9110 YYZZ=            -67.0438
 XXYZ=              3.2792 YYXZ=             -7.5262 ZZXY=             -9.0117
 N-N= 3.019666925165D+02 E-N=-1.895850323190D+03  KE= 5.412812606515D+02
 SC-PCM: Using the SCF Density.
 SC-PCM: The equilibrium contribution to the free energy is   -0.077856870 a.u.
 SC-PCM: The total energy including the PCM contribution is      -544.542172444 a.u.
 SC-PCM: Erms=  0.21970D-07 Emax=  0.10146D-06 Qconv=  0.10000D-06
 SC-PCM: Convergence achieved in   6 iterations.
 SC-PCM: The reaction field is now self-consistent.
 Error on total polarization charges =  0.01099
 --------------------------------------------------------------------
 Self-consistent PCM results
 ===========================
 <psi(0)|   H    |psi(0)>                     (a.u.) =    -544.464574
 <psi(0)|H+V(0)/2|psi(0)>                     (a.u.) =    -544.541933
 <psi(0)|H+V(f)/2|psi(0)>                     (a.u.) =    -544.542431
 <psi(f)|   H    |psi(f)>                     (a.u.) =    -544.464316
 <psi(f)|H+V(f)/2|psi(f)>                     (a.u.) =    -544.542172
 Total free energy in solution:
 - with all non electrostatic terms           (a.u.) =    -544.520938
 --------------------------------------------------------------------
 (Unpolarized solute)-Solvent             (kcal/mol) =     -48.54
 (Polarized solute)-Solvent               (kcal/mol) =     -48.86
 Solute polarization                      (kcal/mol) =       0.16
 Total electrostatic                      (kcal/mol) =     -48.69
 --------------------------------------------------------------------
 Cavitation energy                        (kcal/mol) =      25.10
 Dispersion energy                        (kcal/mol) =     -12.72
 Repulsion energy                         (kcal/mol) =       0.95
 Total non electrostatic                  (kcal/mol) =      13.32
 DeltaG (solv)                            (kcal/mol) =     -35.37
 --------------------------------------------------------------------
 Dipole moment (Debye):
 in vacuo    : X=  0.4610 Y=  0.7537 Z= -0.1279 Tot=  0.8927
 in solution : X=  0.4945 Y=  0.8043 Z= -0.1289 Tot=  0.9529
 --------------------------------------------------------------------
 Partition over spheres:
 Sphere  on Atom  Surface  Charge   GEl     GCav    GDR
    1      O1      18.09   0.055    1.76    2.01   -0.80
    2      O2      14.26   0.020    0.66    1.59   -0.37
    3      H3      14.38  -0.117   -5.07    1.70   -1.07
    4      O4      14.20   0.027    0.97    1.62   -0.43
    5      H5       9.63  -0.065   -2.88    1.22   -0.70
    6      H6      14.32  -0.115   -5.17    1.71   -1.13
    7      H7      11.09  -0.080   -3.55    1.42   -0.77
    8      H8      14.35  -0.116   -5.24    1.72   -1.16
    9      H9      10.22  -0.072   -3.25    1.31   -0.73
   10      O10     15.51   0.008    0.06    1.77   -0.23
   11      H11     14.40  -0.118   -5.55    1.71   -1.05
   12      H12     14.39  -0.118   -5.54    1.71   -1.06
   13      O13     13.67   0.021    0.68    1.58   -0.38
   14      H14     10.35  -0.074   -3.35    1.31   -0.75
   15      H15     14.25  -0.115   -5.14    1.69   -1.12
   16     Na16      5.36  -0.141   -8.23    1.02   -0.03
 --------------------------------------------------------------------
 After PCM corrections, the energy is  -544.520937926     a.u.
 --------------------------------------------------------------------
 1\1\GINC-N681\SP\RB3LYP\Aug-CC-pVDZ\H10Na1O5(1+)\HNR2\18-Jul-2022\0\\#
  geom=check scrf=(solvent=water,iefpcm,externaliteration,1stvac,read) 
 rb3lyp/aug-cc-pvdz empiricaldispersion=gd3 scf=(maxcycle=500) int(Acc2
 E=11,grid=ultrafine)\\MD frame sim002_type3_coord-5_3-1-1_10C_b1_id817
 71_step1460\\1,1\O,0.0657868204,-0.2334031842,-2.5588568561\O,-1.07593
 64642,0.1580354299,1.5840890153\H,-0.2670517569,-0.7866026865,-3.27562
 04001\O,1.6805332067,-0.7480323509,1.6372767293\H,1.4950630948,-1.6972
 333728,1.6938664575\H,2.5319644758,-0.6128530919,2.0708083406\H,0.3618
 79452,0.5886959223,-2.9710905857\H,-1.8506146782,0.6423056809,1.895383
 9398\H,-0.4337294964,0.1821131055,2.308330811\O,1.2162291912,1.9687253
 27,-0.9825240744\H,0.755815616,2.8069136659,-0.8430088694\H,2.14821291
 65,2.2122950117,-1.0605576922\O,-0.3137373063,-2.4067117627,0.46169966
 05\H,-1.0832203863,-2.1916879897,1.0081921009\H,-0.4636659733,-3.30047
 59264,0.1293715483\Na,0.3652912883,-0.1941737782,-0.2852101254\\Versio
 n=ES64L-G16RevB.01\State=1-A\HF=-544.5421724\RMSD=6.127e-09\Dipole=0.1
 022585,0.3589984,0.0348407\Quadrupole=-4.5912002,2.7469785,1.8442217,3
 .622393,-0.4299433,-2.7114666\PG=C01 [X(H10Na1O5)]\\@


 THE ATTENTION SPAN OF A COMPUTER IS AS LONG
 AS ITS EXTENSION CORD.
 Job cpu time:       0 days  0 hours 45 minutes 26.5 seconds.
 Elapsed time:       0 days  0 hours  1 minutes 11.2 seconds.
 File lengths (MBytes):  RWF=     79 Int=      0 D2E=      0 Chk=      6 Scr=      1
 Normal termination of Gaussian 16 at Mon Jul 18 21:13:14 2022.
