 Entering Gaussian System, Link 0=g16
 Initial command:
 /share/sw/gaussian/g16_B.01_avx2-enabled/g16/l1.exe "/scratch/hnr2/2616327/Gau-12356.inp" -scrdir="/scratch/hnr2/2616327/"
 Entering Link 1 = /share/sw/gaussian/g16_B.01_avx2-enabled/g16/l1.exe PID=     12357.
  
 Copyright (c) 1988-2017, Gaussian, Inc.  All Rights Reserved.
  
 This is part of the Gaussian(R) 16 program.  It is based on
 the Gaussian(R) 09 system (copyright 2009, Gaussian, Inc.),
 the Gaussian(R) 03 system (copyright 2003, Gaussian, Inc.),
 the Gaussian(R) 98 system (copyright 1998, Gaussian, Inc.),
 the Gaussian(R) 94 system (copyright 1995, Gaussian, Inc.),
 the Gaussian 92(TM) system (copyright 1992, Gaussian, Inc.),
 the Gaussian 90(TM) system (copyright 1990, Gaussian, Inc.),
 the Gaussian 88(TM) system (copyright 1988, Gaussian, Inc.),
 the Gaussian 86(TM) system (copyright 1986, Carnegie Mellon
 University), and the Gaussian 82(TM) system (copyright 1983,
 Carnegie Mellon University). Gaussian is a federally registered
 trademark of Gaussian, Inc.
  
 This software contains proprietary and confidential information,
 including trade secrets, belonging to Gaussian, Inc.
  
 This software is provided under written license and may be
 used, copied, transmitted, or stored only in accord with that
 written license.
  
 The following legend is applicable only to US Government
 contracts under FAR:
  
                    RESTRICTED RIGHTS LEGEND
  
 Use, reproduction and disclosure by the US Government is
 subject to restrictions as set forth in subparagraphs (a)
 and (c) of the Commercial Computer Software - Restricted
 Rights clause in FAR 52.227-19.
  
 Gaussian, Inc.
 340 Quinnipiac St., Bldg. 40, Wallingford CT 06492
  
  
 ---------------------------------------------------------------
 Warning -- This program may not be used in any manner that
 competes with the business of Gaussian, Inc. or will provide
 assistance to any competitor of Gaussian, Inc.  The licensee
 of this program is prohibited from giving any competitor of
 Gaussian, Inc. access to this program.  By using this program,
 the user acknowledges that Gaussian, Inc. is engaged in the
 business of creating and licensing software in the field of
 computational chemistry and represents and warrants to the
 licensee that it is not a competitor of Gaussian, Inc. and that
 it will not use this program in any manner prohibited above.
 ---------------------------------------------------------------
  

 Cite this work as:
 Gaussian 16, Revision B.01,
 M. J. Frisch, G. W. Trucks, H. B. Schlegel, G. E. Scuseria, 
 M. A. Robb, J. R. Cheeseman, G. Scalmani, V. Barone, 
 G. A. Petersson, H. Nakatsuji, X. Li, M. Caricato, A. V. Marenich, 
 J. Bloino, B. G. Janesko, R. Gomperts, B. Mennucci, H. P. Hratchian, 
 J. V. Ortiz, A. F. Izmaylov, J. L. Sonnenberg, D. Williams-Young, 
 F. Ding, F. Lipparini, F. Egidi, J. Goings, B. Peng, A. Petrone, 
 T. Henderson, D. Ranasinghe, V. G. Zakrzewski, J. Gao, N. Rega, 
 G. Zheng, W. Liang, M. Hada, M. Ehara, K. Toyota, R. Fukuda, 
 J. Hasegawa, M. Ishida, T. Nakajima, Y. Honda, O. Kitao, H. Nakai, 
 T. Vreven, K. Throssell, J. A. Montgomery, Jr., J. E. Peralta, 
 F. Ogliaro, M. J. Bearpark, J. J. Heyd, E. N. Brothers, K. N. Kudin, 
 V. N. Staroverov, T. A. Keith, R. Kobayashi, J. Normand, 
 K. Raghavachari, A. P. Rendell, J. C. Burant, S. S. Iyengar, 
 J. Tomasi, M. Cossi, J. M. Millam, M. Klene, C. Adamo, R. Cammi, 
 J. W. Ochterski, R. L. Martin, K. Morokuma, O. Farkas, 
 J. B. Foresman, and D. J. Fox, Gaussian, Inc., Wallingford CT, 2016.
 
 ******************************************
 Gaussian 16:  ES64L-G16RevB.01 20-Dec-2017
                19-Jul-2022 
 ******************************************
 %nprocshared=40
 Will use up to   40 processors via shared memory.
 %mem=60GB
 %chk=sim008_type3_coord-5_0-5-0_10C_b1_id81781_step4440.chk
 ----------------------------------------------------------------------
 # geom=(newdefinition,check) opt=(calcall,maxcycles=500,maxstep=1,cart
 esian) freq iop(1/152=500,1/8=1) scf=(maxcycle=500,vshift=1000) int(gr
 id=ultrafine) rb3lyp/aug-cc-pvdz empiricaldispersion=gd3
 ----------------------------------------------------------------------
 1/6=500,8=1,10=4,18=10,26=4,29=4002,38=1,152=500/1,3;
 2/12=2,29=2,40=1/2;
 3/5=16,7=10,11=2,14=-4,25=1,30=1,71=2,74=-5,75=-5,116=1,124=31,140=1/1,2,3;
 4//1;
 5/5=2,7=500,10=1000,38=5/2;
 8/6=4,10=90,11=11/1;
 11/6=1,8=1,9=11,15=111,16=1/1,2,10;
 10/6=1/2;
 6/7=2,8=2,9=2,10=2,18=1,28=1/1;
 7/7=1,10=1,25=1/1,2,3,16;
 1/6=500,8=1,10=4,18=10,26=4,152=500/3(3);
 2/29=1/2;
 7/7=1,8=1,9=1,25=1,44=-1/16;
 99/12=1/99;
 2/29=1/2;
 3/5=16,7=10,11=2,14=-2,25=1,30=1,71=2,74=-5,75=-5,116=1,124=31,140=1/1,2,3;
 4/5=5,16=3,69=1/1;
 5/5=2,7=500,10=1000,38=5/2;
 8/6=4,10=90,11=11/1;
 11/6=1,8=1,9=11,15=111,16=1/1,2,10;
 10/6=1/2;
 7/7=1,10=1,25=1/1,2,3,16;
 1/6=500,8=1,10=4,18=10,26=4,152=500/3(-8);
 2/29=1/2;
 6/7=2,8=2,9=2,10=2,18=1,19=2,28=1/1;
 7/7=1,8=1,9=1,25=1,44=-1/16;
 99/12=1/99;
 -----------------------------------------------------------
 MD frame sim008_type3_coord-5_0-5-0_10C_b1_id81781_step4440
 -----------------------------------------------------------
 Structure from the checkpoint file:  "sim008_type3_coord-5_0-5-0_10C_b1_id81781_step4440.chk"
 Charge =  1 Multiplicity = 1
 No Z-Matrix found in chk file; cartesian coordinates used.
  O                                                -2.211006507684     -1.060126445279      0.377250910547
  H                                                -2.491183279488     -1.591031607930      1.134489204286
  H                                                -2.708041265908     -1.416751364128     -0.370797709856
  O                                                 1.380662557844     -1.655627830633      0.840146873439
  O                                                 0.173785016073     -0.137929431202     -2.252088485335
  O                                                 2.144966111755      1.110108619412      0.429221167439
  H                                                 2.242735102179     -1.249702991909      1.003695689220
  H                                                 1.456365962248     -2.573871124359      1.124849798597
  H                                                 2.676240366310      1.383745016727     -0.330186143235
  H                                                 2.392759327923      1.719665047130      1.136813959068
  O                                                -1.470326775629      1.736763580277      0.575753251946
  H                                                -0.174655018267      0.456877085299     -2.928334654903
  H                                                 0.600778675941     -0.852931745394     -2.741100689091
  H                                                -1.559895443034      2.682221798902      0.743312761659
  H                                                -2.348400321590      1.354497025527      0.707541951472
  Na                                               -0.021031575017      0.012888629048      0.068858735318
 Recover connectivity data from disk.

 GradGradGradGradGradGradGradGradGradGradGradGradGradGradGradGradGradGrad
 Berny optimization.
 Initialization pass.
 No Z-matrix variables, so optimization will use Cartesian coordinates.
 Trust Radius=1.00D-02 FncErr=1.00D-07 GrdErr=1.00D-06 EigMax=2.50D+02 EigMin=1.00D-04
 Number of steps in this run=    500 maximum allowed number of steps=    500.
 GradGradGradGradGradGradGradGradGradGradGradGradGradGradGradGradGradGrad

                          Input orientation:                          
 ---------------------------------------------------------------------
 Center     Atomic      Atomic             Coordinates (Angstroms)
 Number     Number       Type             X           Y           Z
 ---------------------------------------------------------------------
      1          8           0       -2.211007   -1.060126    0.377251
      2          1           0       -2.491183   -1.591032    1.134489
      3          1           0       -2.708041   -1.416751   -0.370798
      4          8           0        1.380663   -1.655628    0.840147
      5          8           0        0.173785   -0.137929   -2.252088
      6          8           0        2.144966    1.110109    0.429221
      7          1           0        2.242735   -1.249703    1.003696
      8          1           0        1.456366   -2.573871    1.124850
      9          1           0        2.676240    1.383745   -0.330186
     10          1           0        2.392759    1.719665    1.136814
     11          8           0       -1.470327    1.736764    0.575753
     12          1           0       -0.174655    0.456877   -2.928335
     13          1           0        0.600779   -0.852932   -2.741101
     14          1           0       -1.559895    2.682222    0.743313
     15          1           0       -2.348400    1.354497    0.707542
     16         11           0       -0.021032    0.012889    0.068859
 ---------------------------------------------------------------------
                    Distance matrix (angstroms):
                    1          2          3          4          5
     1  O    0.000000
     2  H    0.966317   0.000000
     3  H    0.966334   1.530781   0.000000
     4  O    3.670011   3.883555   4.270942   0.000000
     5  O    3.667575   4.547798   3.671452   3.649915   0.000000
     6  O    4.866941   5.411787   5.529623   2.898675   3.554233
     7  H    4.501576   4.748010   5.140751   0.966795   4.014564
     8  H    4.037319   4.068072   4.573639   0.964343   4.356895
     9  H    5.509824   6.139775   6.069178   3.505137   3.503068
    10  H    5.431283   5.900306   6.174801   3.536234   4.456362
    11  O    2.900104   3.525416   3.517464   4.439185   3.770181
    12  H    4.168324   5.105563   4.058266   4.591638   0.965668
    13  H    4.203948   5.012506   4.109078   3.752049   0.965756
    14  H    3.816165   4.391015   4.400121   5.241488   4.464452
    15  H    2.440978   2.979733   2.995326   4.794199   4.165113
    16  Na   2.458141   3.132056   3.075254   2.311618   2.333987
                    6          7          8          9         10
     6  O    0.000000
     7  H    2.430698   0.000000
     8  H    3.811794   1.544822   0.000000
     9  H    0.966348   2.983658   4.389527   0.000000
    10  H    0.966255   2.976134   4.394477   1.531435   0.000000
    11  O    3.672126   4.784239   5.239142   4.259034   3.903654
    12  H    4.132860   4.921083   5.317327   3.966997   4.971085
    13  H    4.035961   4.108156   4.317318   3.888801   4.986750
    14  H    4.036854   5.476115   6.072060   4.558869   4.087155
    15  H    4.508606   5.286595   5.484749   5.130765   4.774538
    16  Na   2.454648   2.755485   3.160561   3.051845   3.143247
                   11         12         13         14         15
    11  O    0.000000
    12  H    3.949115   0.000000
    13  H    4.690151   1.533608   0.000000
    14  H    0.964360   4.511324   5.413590   0.000000
    15  H    0.966700   4.330183   5.046141   1.544627   0.000000
    16  Na   2.308494   3.033792   3.005356   3.154097   2.761245
                   16
    16  Na   0.000000
 Stoichiometry    H10NaO5(1+)
 Framework group  C1[X(H10NaO5)]
 Deg. of freedom    42
 Full point group                 C1      NOp   1
 Largest Abelian subgroup         C1      NOp   1
 Largest concise Abelian subgroup C1      NOp   1
                         Standard orientation:                         
 ---------------------------------------------------------------------
 Center     Atomic      Atomic             Coordinates (Angstroms)
 Number     Number       Type             X           Y           Z
 ---------------------------------------------------------------------
      1          8           0        2.211007   -1.060126   -0.377251
      2          1           0        2.491183   -1.591032   -1.134489
      3          1           0        2.708041   -1.416751    0.370798
      4          8           0       -1.380663   -1.655628   -0.840147
      5          8           0       -0.173785   -0.137929    2.252088
      6          8           0       -2.144966    1.110109   -0.429221
      7          1           0       -2.242735   -1.249703   -1.003696
      8          1           0       -1.456366   -2.573871   -1.124850
      9          1           0       -2.676240    1.383745    0.330186
     10          1           0       -2.392759    1.719665   -1.136814
     11          8           0        1.470327    1.736764   -0.575753
     12          1           0        0.174655    0.456877    2.928335
     13          1           0       -0.600779   -0.852932    2.741101
     14          1           0        1.559895    2.682222   -0.743313
     15          1           0        2.348400    1.354497   -0.707542
     16         11           0        0.021032    0.012889   -0.068859
 ---------------------------------------------------------------------
 Rotational constants (GHZ):           1.7838257           1.3124598           1.2106235
 Standard basis: Aug-CC-pVDZ (5D, 7F)
 There are   244 symmetry adapted cartesian basis functions of A   symmetry.
 There are   232 symmetry adapted basis functions of A   symmetry.
   232 basis functions,   406 primitive gaussians,   244 cartesian basis functions
    30 alpha electrons       30 beta electrons
       nuclear repulsion energy       302.6006537606 Hartrees.
 NAtoms=   16 NActive=   16 NUniq=   16 SFac= 1.00D+00 NAtFMM=   60 NAOKFM=F Big=F
 Integral buffers will be    131072 words long.
 Raffenetti 2 integral format.
 Two-electron integral symmetry is turned on.
 Nuclear repulsion after empirical dispersion term =      302.5923962572 Hartrees.
 One-electron integrals computed using PRISM.
 NBasis=   232 RedAO= T EigKep=  1.98D-04  NBF=   232
 NBsUse=   232 1.00D-06 EigRej= -1.00D+00 NBFU=   232
 ExpMin= 6.16D-03 ExpMax= 3.17D+04 ExpMxC= 1.08D+03 IAcc=3 IRadAn=         5 AccDes= 0.00D+00
 Harris functional with IExCor=  402 and IRadAn=       5 diagonalized for initial guess.
 HarFok:  IExCor=  402 AccDes= 0.00D+00 IRadAn=         5 IDoV= 1 UseB2=F ITyADJ=14
 ICtDFT=  3500011 ScaDFX=  1.000000  1.000000  1.000000  1.000000
 FoFCou: FMM=F IPFlag=           0 FMFlag=      100000 FMFlg1=           0
         NFxFlg=           0 DoJE=T BraDBF=F KetDBF=T FulRan=T
         wScrn=  0.000000 ICntrl=       500 IOpCl=  0 I1Cent=   200000004 NGrid=           0
         NMat0=    1 NMatS0=      1 NMatT0=    0 NMatD0=    1 NMtDS0=    0 NMtDT0=    0
 Petite list used in FoFCou.
 Requested convergence on RMS density matrix=1.00D-08 within 500 cycles.
 Requested convergence on MAX density matrix=1.00D-06.
 Requested convergence on             energy=1.00D-06.
 Virtual orbitals will be shifted by   1.000 hartree.
 No special actions if energy rises.
 Restarting incremental Fock formation.
 SCF Done:  E(RB3LYP) =  -544.463878677     A.U. after   28 cycles
            NFock= 28  Conv=0.94D-08     -V/T= 2.0058
 DoSCS=F DFT=T ScalE2(SS,OS)=  1.000000  1.000000
 Range of M.O.s used for correlation:     1   232
 NBasis=   232 NAE=    30 NBE=    30 NFC=     0 NFV=     0
 NROrb=    232 NOA=    30 NOB=    30 NVA=   202 NVB=   202

 **** Warning!!: The largest alpha MO coefficient is  0.19035571D+02

 Symmetrizing basis deriv contribution to polar:
 IMax=3 JMax=2 DiffMx= 0.00D+00
 G2DrvN: will do    17 centers at a time, making    1 passes.
 Calling FoFCou, ICntrl=  3107 FMM=F I1Cent=   0 AccDes= 0.00D+00.
 End of G2Drv F.D. properties file   721 does not exist.
 End of G2Drv F.D. properties file   722 does not exist.
 End of G2Drv F.D. properties file   788 does not exist.
          IDoAtm=1111111111111111
          Differentiating once with respect to electric field.
                with respect to dipole field.
          Differentiating once with respect to nuclear coordinates.
 Keep R1 ints in memory in canonical form, NReq=408195286.
          There are    51 degrees of freedom in the 1st order CPHF.  IDoFFX=6 NUNeed=     3.
     48 vectors produced by pass  0 Test12= 1.19D-14 1.96D-09 XBig12= 2.31D+01 1.16D+00.
 AX will form    48 AO Fock derivatives at one time.
     48 vectors produced by pass  1 Test12= 1.19D-14 1.96D-09 XBig12= 1.78D+00 2.47D-01.
     48 vectors produced by pass  2 Test12= 1.19D-14 1.96D-09 XBig12= 2.07D-02 2.20D-02.
     48 vectors produced by pass  3 Test12= 1.19D-14 1.96D-09 XBig12= 3.95D-05 7.69D-04.
     48 vectors produced by pass  4 Test12= 1.19D-14 1.96D-09 XBig12= 4.68D-08 3.16D-05.
     23 vectors produced by pass  5 Test12= 1.19D-14 1.96D-09 XBig12= 3.64D-11 9.58D-07.
      3 vectors produced by pass  6 Test12= 1.19D-14 1.96D-09 XBig12= 2.61D-14 2.16D-08.
 InvSVY:  IOpt=1 It=  1 EMax= 4.44D-15
 Solved reduced A of dimension   266 with    51 vectors.
 Isotropic polarizability for W=    0.000000       47.28 Bohr**3.
 End of Minotr F.D. properties file   721 does not exist.
 End of Minotr F.D. properties file   722 does not exist.
 End of Minotr F.D. properties file   788 does not exist.

 **********************************************************************

            Population analysis using the SCF Density.

 **********************************************************************

 Orbital symmetries:
       Occupied  (A) (A) (A) (A) (A) (A) (A) (A) (A) (A) (A) (A)
                 (A) (A) (A) (A) (A) (A) (A) (A) (A) (A) (A) (A)
                 (A) (A) (A) (A) (A) (A)
       Virtual   (A) (A) (A) (A) (A) (A) (A) (A) (A) (A) (A) (A)
                 (A) (A) (A) (A) (A) (A) (A) (A) (A) (A) (A) (A)
                 (A) (A) (A) (A) (A) (A) (A) (A) (A) (A) (A) (A)
                 (A) (A) (A) (A) (A) (A) (A) (A) (A) (A) (A) (A)
                 (A) (A) (A) (A) (A) (A) (A) (A) (A) (A) (A) (A)
                 (A) (A) (A) (A) (A) (A) (A) (A) (A) (A) (A) (A)
                 (A) (A) (A) (A) (A) (A) (A) (A) (A) (A) (A) (A)
                 (A) (A) (A) (A) (A) (A) (A) (A) (A) (A) (A) (A)
                 (A) (A) (A) (A) (A) (A) (A) (A) (A) (A) (A) (A)
                 (A) (A) (A) (A) (A) (A) (A) (A) (A) (A) (A) (A)
                 (A) (A) (A) (A) (A) (A) (A) (A) (A) (A) (A) (A)
                 (A) (A) (A) (A) (A) (A) (A) (A) (A) (A) (A) (A)
                 (A) (A) (A) (A) (A) (A) (A) (A) (A) (A) (A) (A)
                 (A) (A) (A) (A) (A) (A) (A) (A) (A) (A) (A) (A)
                 (A) (A) (A) (A) (A) (A) (A) (A) (A) (A) (A) (A)
                 (A) (A) (A) (A) (A) (A) (A) (A) (A) (A) (A) (A)
                 (A) (A) (A) (A) (A) (A) (A) (A) (A) (A)
 The electronic state is 1-A.
 Alpha  occ. eigenvalues --  -38.57490 -19.31366 -19.31326 -19.31211 -19.30110
 Alpha  occ. eigenvalues --  -19.30104  -2.31045  -1.24396  -1.24370  -1.24305
 Alpha  occ. eigenvalues --   -1.17571  -1.17452  -1.17342  -1.16315  -1.16199
 Alpha  occ. eigenvalues --   -0.69039  -0.69021  -0.68988  -0.68388  -0.68358
 Alpha  occ. eigenvalues --   -0.57245  -0.56254  -0.56127  -0.55127  -0.55066
 Alpha  occ. eigenvalues --   -0.48130  -0.47956  -0.47644  -0.46828  -0.46780
 Alpha virt. eigenvalues --   -0.16265  -0.13842  -0.12975  -0.12433  -0.10618
 Alpha virt. eigenvalues --   -0.07999  -0.07940  -0.07729  -0.07159  -0.06200
 Alpha virt. eigenvalues --   -0.05639  -0.05216  -0.05035  -0.04862  -0.04841
 Alpha virt. eigenvalues --   -0.04111  -0.03398  -0.02769  -0.00319   0.00515
 Alpha virt. eigenvalues --    0.00680   0.00992   0.01958   0.02011   0.02108
 Alpha virt. eigenvalues --    0.02232   0.02621   0.03453   0.03626   0.04050
 Alpha virt. eigenvalues --    0.04403   0.04862   0.05022   0.05313   0.05470
 Alpha virt. eigenvalues --    0.06028   0.06735   0.06816   0.07098   0.08896
 Alpha virt. eigenvalues --    0.09058   0.10576   0.11021   0.11859   0.13077
 Alpha virt. eigenvalues --    0.13142   0.14612   0.15927   0.16863   0.17226
 Alpha virt. eigenvalues --    0.17769   0.19764   0.20309   0.22097   0.22426
 Alpha virt. eigenvalues --    0.22657   0.22886   0.23969   0.24709   0.25414
 Alpha virt. eigenvalues --    0.26328   0.26850   0.28542   0.29829   0.30877
 Alpha virt. eigenvalues --    0.31041   0.32452   0.32631   0.33086   0.34115
 Alpha virt. eigenvalues --    0.34667   0.35199   0.36081   0.36202   0.37422
 Alpha virt. eigenvalues --    0.37958   0.38505   0.39553   0.39801   0.40914
 Alpha virt. eigenvalues --    0.40972   0.42745   0.43029   0.43351   0.45359
 Alpha virt. eigenvalues --    0.46003   0.46656   0.46879   0.49716   0.52427
 Alpha virt. eigenvalues --    0.52977   0.57026   0.59371   0.61220   0.61529
 Alpha virt. eigenvalues --    0.63231   0.68648   0.71470   0.72024   0.73413
 Alpha virt. eigenvalues --    0.76113   0.79611   0.80125   0.81590   0.82616
 Alpha virt. eigenvalues --    0.82690   0.84164   0.86355   0.88252   0.90281
 Alpha virt. eigenvalues --    0.90604   0.91711   0.92271   0.94302   0.94856
 Alpha virt. eigenvalues --    0.95137   1.01345   1.03443   1.04906   1.05852
 Alpha virt. eigenvalues --    1.08195   1.10385   1.12324   1.13329   1.15774
 Alpha virt. eigenvalues --    1.16693   1.19930   1.22272   1.24571   1.28869
 Alpha virt. eigenvalues --    1.31062   1.33524   1.39377   1.48250   1.51671
 Alpha virt. eigenvalues --    1.56321   1.61760   1.62156   1.62639   1.65263
 Alpha virt. eigenvalues --    1.66491   1.66811   1.70136   1.74296   1.75798
 Alpha virt. eigenvalues --    1.76778   1.77883   1.78131   1.78157   1.79584
 Alpha virt. eigenvalues --    1.80373   1.98200   2.00675   2.01947   2.02135
 Alpha virt. eigenvalues --    2.02930   2.03203   2.04188   2.04536   2.06106
 Alpha virt. eigenvalues --    2.08029   2.14196   2.15710   2.18643   2.21774
 Alpha virt. eigenvalues --    2.22611   2.32716   2.35410   2.37928   2.38666
 Alpha virt. eigenvalues --    2.43520   2.47227   2.59501   2.63199   2.64561
 Alpha virt. eigenvalues --    2.67065   2.76260   3.16248   3.17206   3.17625
 Alpha virt. eigenvalues --    3.18099   3.18373   3.19415   3.20166   3.22971
 Alpha virt. eigenvalues --    3.23308   3.25051   3.26156   3.27013   3.28863
 Alpha virt. eigenvalues --    3.29457   3.33268   3.52855   3.53292   3.55561
 Alpha virt. eigenvalues --    3.58862   3.59806   3.75917   3.76600   3.77654
 Alpha virt. eigenvalues --    3.79112   3.79824
          Condensed to atoms (all electrons):
               1          2          3          4          5          6
     1  O    7.916203   0.316884   0.317029  -0.015210  -0.021846  -0.003030
     2  H    0.316884   0.568064  -0.095988   0.001847  -0.000251  -0.000534
     3  H    0.317029  -0.095988   0.570020  -0.000904   0.009184  -0.000230
     4  O   -0.015210   0.001847  -0.000904   7.702686  -0.009665  -0.025433
     5  O   -0.021846  -0.000251   0.009184  -0.009665   7.864991  -0.023504
     6  O   -0.003030  -0.000534  -0.000230  -0.025433  -0.023504   7.930645
     7  H   -0.000762  -0.000318  -0.000473   0.372480  -0.001386   0.012996
     8  H    0.001703   0.000193   0.000510   0.317109   0.002285   0.000017
     9  H   -0.000262  -0.000097   0.000120   0.003030   0.011489   0.321044
    10  H   -0.000482  -0.000064  -0.000071   0.002450  -0.000414   0.313431
    11  O   -0.029193   0.003173   0.001710   0.001607  -0.009174  -0.017575
    12  H   -0.000824   0.000101   0.000361   0.000232   0.342162  -0.000086
    13  H    0.000106   0.000114   0.000256   0.003780   0.349999   0.000029
    14  H   -0.000054   0.000337   0.000644   0.000319   0.001949   0.001757
    15  H    0.013581   0.001299   0.000399  -0.001051  -0.001514  -0.000797
    16  Na  -0.090009   0.001070  -0.005770  -0.044881  -0.104245  -0.095287
               7          8          9         10         11         12
     1  O   -0.000762   0.001703  -0.000262  -0.000482  -0.029193  -0.000824
     2  H   -0.000318   0.000193  -0.000097  -0.000064   0.003173   0.000101
     3  H   -0.000473   0.000510   0.000120  -0.000071   0.001710   0.000361
     4  O    0.372480   0.317109   0.003030   0.002450   0.001607   0.000232
     5  O   -0.001386   0.002285   0.011489  -0.000414  -0.009174   0.342162
     6  O    0.012996   0.000017   0.321044   0.313431  -0.017575  -0.000086
     7  H    0.605901  -0.115901   0.000460   0.001266  -0.000729  -0.000489
     8  H   -0.115901   0.594127   0.000642   0.000281   0.000308   0.000263
     9  H    0.000460   0.000642   0.573366  -0.097064  -0.001324   0.000165
    10  H    0.001266   0.000281  -0.097064   0.566554   0.002222   0.000211
    11  O   -0.000729   0.000308  -0.001324   0.002222   7.715863   0.004228
    12  H   -0.000489   0.000263   0.000165   0.000211   0.004228   0.559851
    13  H   -0.000097  -0.000237   0.000828   0.000062   0.000109  -0.099483
    14  H    0.000062   0.000192   0.000573   0.000210   0.317118  -0.000165
    15  H   -0.000573   0.000028  -0.000583  -0.000253   0.370199  -0.000204
    16  Na  -0.038110   0.015920  -0.012611   0.003298  -0.051568  -0.004702
              13         14         15         16
     1  O    0.000106  -0.000054   0.013581  -0.090009
     2  H    0.000114   0.000337   0.001299   0.001070
     3  H    0.000256   0.000644   0.000399  -0.005770
     4  O    0.003780   0.000319  -0.001051  -0.044881
     5  O    0.349999   0.001949  -0.001514  -0.104245
     6  O    0.000029   0.001757  -0.000797  -0.095287
     7  H   -0.000097   0.000062  -0.000573  -0.038110
     8  H   -0.000237   0.000192   0.000028   0.015920
     9  H    0.000828   0.000573  -0.000583  -0.012611
    10  H    0.000062   0.000210  -0.000253   0.003298
    11  O    0.000109   0.317118   0.370199  -0.051568
    12  H   -0.099483  -0.000165  -0.000204  -0.004702
    13  H    0.559430   0.000228  -0.000537  -0.011444
    14  H    0.000228   0.592903  -0.115150   0.017299
    15  H   -0.000537  -0.115150   0.606657  -0.037022
    16  Na  -0.011444   0.017299  -0.037022  10.522082
 Mulliken charges:
               1
     1  O   -0.403835
     2  H    0.204169
     3  H    0.203204
     4  O   -0.308398
     5  O   -0.410060
     6  O   -0.413443
     7  H    0.165674
     8  H    0.182560
     9  H    0.200225
    10  H    0.208363
    11  O   -0.306974
    12  H    0.198379
    13  H    0.196857
    14  H    0.181778
    15  H    0.165524
    16  Na   0.935978
 Sum of Mulliken charges =   1.00000
 Mulliken charges with hydrogens summed into heavy atoms:
               1
     1  O    0.003538
     4  O    0.039835
     5  O   -0.014824
     6  O   -0.004855
    11  O    0.040328
    16  Na   0.935978
 APT charges:
               1
     1  O   -0.549653
     2  H    0.286846
     3  H    0.286655
     4  O   -0.574588
     5  O   -0.553676
     6  O   -0.550194
     7  H    0.306803
     8  H    0.290182
     9  H    0.286969
    10  H    0.287092
    11  O   -0.574290
    12  H    0.290054
    13  H    0.290143
    14  H    0.290619
    15  H    0.306247
    16  Na   0.880792
 Sum of APT charges =   1.00000
 APT charges with hydrogens summed into heavy atoms:
               1
     1  O    0.023848
     4  O    0.022397
     5  O    0.026522
     6  O    0.023866
    11  O    0.022575
    16  Na   0.880792
 Electronic spatial extent (au):  <R**2>=           1165.4141
 Charge=              1.0000 electrons
 Dipole moment (field-independent basis, Debye):
    X=             -0.0093    Y=             -0.0798    Z=              0.6149  Tot=              0.6201
 Quadrupole moment (field-independent basis, Debye-Ang):
   XX=             -9.3976   YY=            -15.4902   ZZ=            -19.8795
   XY=             -3.1710   XZ=             -0.1674   YZ=             -0.0164
 Traceless Quadrupole moment (field-independent basis, Debye-Ang):
   XX=              5.5248   YY=             -0.5677   ZZ=             -4.9571
   XY=             -3.1710   XZ=             -0.1674   YZ=             -0.0164
 Octapole moment (field-independent basis, Debye-Ang**2):
  XXX=              3.7768  YYY=              3.1079  ZZZ=             38.2232  XYY=              1.0396
  XXY=              0.6560  XXZ=            -14.7178  XZZ=             -3.7909  YZZ=             -4.3685
  YYZ=            -17.8191  XYZ=             -1.2940
 Hexadecapole moment (field-independent basis, Debye-Ang**3):
 XXXX=           -392.1283 YYYY=           -223.3940 ZZZZ=           -165.4241 XXXY=            -63.1681
 XXXZ=             -0.0342 YYYX=             25.8616 YYYZ=              2.0861 ZZZX=             -4.7639
 ZZZY=             -1.2052 XXYY=            -49.2730 XXZZ=           -113.5175 YYZZ=            -74.8625
 XXYZ=              0.3303 YYXZ=              3.0384 ZZXY=             -0.9822
 N-N= 3.025923962572D+02 E-N=-1.888853087440D+03  KE= 5.413007568547D+02
  Exact polarizability:  46.918  -0.774  49.143   0.036   0.148  45.774
 Approx polarizability:  55.048  -1.190  58.523  -0.017   0.156  56.044
 Calling FoFJK, ICntrl=    100127 FMM=F ISym2X=0 I1Cent= 0 IOpClX= 0 NMat=1 NMatS=1 NMatT=0.
 ***** Axes restored to original set *****
 -------------------------------------------------------------------
 Center     Atomic                   Forces (Hartrees/Bohr)
 Number     Number              X              Y              Z
 -------------------------------------------------------------------
      1        8           0.000000712   -0.000001849   -0.000000441
      2        1           0.000000567   -0.000000582   -0.000000381
      3        1           0.000001006   -0.000000900    0.000000160
      4        8           0.000002403    0.000000154    0.000001554
      5        8           0.000000815   -0.000001009   -0.000006135
      6        8           0.000002540    0.000004944   -0.000000249
      7        1           0.000000278    0.000000303    0.000000764
      8        1           0.000000787    0.000000635    0.000000513
      9        1          -0.000002399   -0.000000264    0.000004307
     10        1          -0.000001312   -0.000001436   -0.000002480
     11        8          -0.000001283   -0.000001083   -0.000000734
     12        1           0.000001684   -0.000003912    0.000004889
     13        1          -0.000003572    0.000005444    0.000002917
     14        1          -0.000000574   -0.000000608   -0.000000374
     15        1          -0.000000112   -0.000000761   -0.000000354
     16       11          -0.000001539    0.000000923   -0.000003957
 -------------------------------------------------------------------
 Cartesian Forces:  Max     0.000006135 RMS     0.000002228

 GradGradGradGradGradGradGradGradGradGradGradGradGradGradGradGradGradGrad
 Berny optimization.
 Search for a local minimum.
 Step number   1 out of a maximum of  500
 All quantities printed in internal units (Hartrees-Bohrs-Radians)
 Second derivative matrix not updated -- analytic derivatives used.
 ITU=  0
     Eigenvalues ---    0.00000   0.00006   0.00013   0.00022   0.00056
     Eigenvalues ---    0.00095   0.00105   0.00114   0.00147   0.00151
     Eigenvalues ---    0.00325   0.00369   0.00456   0.00547   0.00609
     Eigenvalues ---    0.00635   0.00701   0.00885   0.01028   0.01085
     Eigenvalues ---    0.01103   0.01144   0.01403   0.01525   0.02506
     Eigenvalues ---    0.03298   0.04739   0.16073   0.16222   0.16266
     Eigenvalues ---    0.16456   0.16556   0.84006   0.87078   0.87606
     Eigenvalues ---    0.89877   0.91283   1.07159   1.10867   1.12584
     Eigenvalues ---    1.15503   1.16191
 RFO step:  Lambda=-1.03072568D-06 EMin= 2.45712511D-06
 Linear search not attempted -- first point.
 Maximum step size (   0.010) exceeded in Quadratic search.
    -- Step size scaled by   0.018
 B after Tr=     0.000107   -0.000092   -0.000042
         Rot=    1.000000    0.000021   -0.000005    0.000001 Ang=   0.00 deg.
 Variable       Old X    -DE/DX   Delta X   Delta X   Delta X     New X
                                 (Linear)    (Quad)   (Total)
    X1       -4.17820   0.00000   0.00000   0.00091   0.00102  -4.17718
    Y1       -2.00335  -0.00000   0.00000  -0.00023  -0.00028  -2.00363
    Z1        0.71290  -0.00000   0.00000  -0.00055  -0.00046   0.71244
    X2       -4.70765   0.00000   0.00000   0.00036   0.00047  -4.70718
    Y2       -3.00661  -0.00000   0.00000  -0.00009  -0.00008  -3.00669
    Z2        2.14387  -0.00000   0.00000  -0.00065  -0.00052   2.14335
    X3       -5.11746   0.00000   0.00000   0.00150   0.00159  -5.11586
    Y3       -2.67727  -0.00000   0.00000  -0.00038  -0.00049  -2.67776
    Z3       -0.70071   0.00000   0.00000  -0.00087  -0.00075  -0.70145
    X4        2.60907   0.00000   0.00000   0.00043   0.00055   2.60962
    Y4       -3.12868   0.00000   0.00000   0.00007   0.00004  -3.12864
    Z4        1.58765   0.00000   0.00000   0.00183   0.00189   1.58954
    X5        0.32841   0.00000   0.00000  -0.00337  -0.00330   0.32510
    Y5       -0.26065  -0.00000   0.00000   0.00031   0.00004  -0.26061
    Z5       -4.25583  -0.00001   0.00000  -0.00076  -0.00079  -4.25662
    X6        4.05340   0.00000   0.00000   0.00071   0.00083   4.05423
    Y6        2.09780   0.00000   0.00000  -0.00007  -0.00014   2.09767
    Z6        0.81111  -0.00000   0.00000   0.00115   0.00098   0.81209
    X7        4.23816   0.00000   0.00000   0.00045   0.00057   4.23873
    Y7       -2.36160   0.00000   0.00000  -0.00010  -0.00013  -2.36173
    Z7        1.89671   0.00000   0.00000   0.00215   0.00217   1.89888
    X8        2.75213   0.00000   0.00000   0.00023   0.00034   2.75247
    Y8       -4.86391   0.00000   0.00000  -0.00002  -0.00003  -4.86394
    Z8        2.12566   0.00000   0.00000   0.00159   0.00173   2.12738
    X9        5.05736  -0.00000   0.00000   0.00211   0.00221   5.05958
    Y9        2.61490  -0.00000   0.00000   0.00004  -0.00009   2.61481
    Z9       -0.62396   0.00000   0.00000   0.00216   0.00197  -0.62200
   X10        4.52166  -0.00000   0.00000  -0.00074  -0.00061   4.52105
   Y10        3.24970  -0.00000   0.00000   0.00001  -0.00000   3.24969
   Z10        2.14827  -0.00000   0.00000   0.00160   0.00138   2.14964
   X11       -2.77851  -0.00000   0.00000   0.00089   0.00102  -2.77750
   Y11        3.28201  -0.00000   0.00000  -0.00023  -0.00027   3.28174
   Z11        1.08802  -0.00000   0.00000  -0.00156  -0.00171   1.08631
   X12       -0.33005   0.00000   0.00000  -0.00403  -0.00397  -0.33402
   Y12        0.86337  -0.00000   0.00000   0.00194   0.00161   0.86498
   Z12       -5.53375   0.00000   0.00000   0.00101   0.00093  -5.53282
   X13        1.13531  -0.00000   0.00000  -0.00386  -0.00381   1.13150
   Y13       -1.61181   0.00001   0.00000   0.00149   0.00117  -1.61064
   Z13       -5.17993   0.00000   0.00000  -0.00290  -0.00289  -5.18282
   X14       -2.94778  -0.00000   0.00000   0.00066   0.00079  -2.94698
   Y14        5.06866  -0.00000   0.00000  -0.00024  -0.00026   5.06840
   Z14        1.40466  -0.00000   0.00000  -0.00163  -0.00186   1.40280
   X15       -4.43783  -0.00000   0.00000   0.00099   0.00111  -4.43672
   Y15        2.55963  -0.00000   0.00000  -0.00044  -0.00047   2.55916
   Z15        1.33706  -0.00000   0.00000  -0.00153  -0.00164   1.33542
   X16       -0.03974  -0.00000   0.00000   0.00106   0.00117  -0.03857
   Y16        0.02436   0.00000   0.00000  -0.00054  -0.00063   0.02373
   Z16        0.13012  -0.00000   0.00000  -0.00038  -0.00042   0.12970
         Item               Value     Threshold  Converged?
 Maximum Force            0.000006     0.000450     YES
 RMS     Force            0.000002     0.000300     YES
 Maximum Displacement     0.003973     0.001800     NO 
 RMS     Displacement     0.001438     0.001200     NO 
 Predicted change in Energy=-1.869443D-08
 GradGradGradGradGradGradGradGradGradGradGradGradGradGradGradGradGradGrad

                          Input orientation:                          
 ---------------------------------------------------------------------
 Center     Atomic      Atomic             Coordinates (Angstroms)
 Number     Number       Type             X           Y           Z
 ---------------------------------------------------------------------
      1          8           0       -2.210469   -1.060274    0.377005
      2          1           0       -2.490932   -1.591072    1.134211
      3          1           0       -2.707197   -1.417011   -0.371194
      4          8           0        1.380952   -1.655605    0.841149
      5          8           0        0.172038   -0.137909   -2.252509
      6          8           0        2.145407    1.110037    0.429741
      7          1           0        2.243038   -1.249771    1.004844
      8          1           0        1.456547   -2.573885    1.125763
      9          1           0        2.677412    1.383695   -0.329146
     10          1           0        2.392438    1.719664    1.137542
     11          8           0       -1.469787    1.736621    0.574848
     12          1           0       -0.176757    0.457729   -2.927841
     13          1           0        0.598762   -0.852312   -2.742629
     14          1           0       -1.559475    2.682082    0.742330
     15          1           0       -2.347811    1.354250    0.706675
     16         11           0       -0.020412    0.012555    0.068636
 ---------------------------------------------------------------------
                    Distance matrix (angstroms):
                    1          2          3          4          5
     1  O    0.000000
     2  H    0.966317   0.000000
     3  H    0.966334   1.530788   0.000000
     4  O    3.669899   3.883495   4.270792   0.000000
     5  O    3.666256   4.546753   3.669529   3.651793   0.000000
     6  O    4.866897   5.411830   5.529488   2.898694   3.556124
     7  H    4.501535   4.748020   5.140650   0.966793   4.016917
     8  H    4.037160   4.067995   4.573402   0.964343   4.358516
     9  H    5.510265   6.140231   6.069576   3.505388   3.505924
    10  H    5.430766   5.899854   6.174244   3.536014   4.457936
    11  O    2.900064   3.525502   3.517325   4.439013   3.768740
    12  H    4.166812   5.104240   4.056381   4.593248   0.965669
    13  H    4.203230   5.012172   4.107549   3.755072   0.965755
    14  H    3.816081   4.391016   4.399973   5.241317   4.463132
    15  H    2.440792   2.979629   2.995137   4.793848   4.163285
    16  Na   2.458130   3.132178   3.075049   2.311570   2.333964
                    6          7          8          9         10
     6  O    0.000000
     7  H    2.430837   0.000000
     8  H    3.811857   1.544820   0.000000
     9  H    0.966348   2.983849   4.389729   0.000000
    10  H    0.966256   2.976151   4.394382   1.531424   0.000000
    11  O    3.671961   4.784194   5.239027   4.259229   3.903037
    12  H    4.134164   4.923107   5.318842   3.969498   4.971980
    13  H    4.038175   4.111590   4.320193   3.891711   4.988793
    14  H    4.036730   5.476083   6.071951   4.559066   4.086570
    15  H    4.508363   5.286371   5.484434   5.130951   4.773796
    16  Na   2.454717   2.755568   3.160474   3.052296   3.143028
                   11         12         13         14         15
    11  O    0.000000
    12  H    3.946685   0.000000
    13  H    4.689044   1.533605   0.000000
    14  H    0.964360   4.508859   5.412474   0.000000
    15  H    0.966702   4.327463   5.044691   1.544630   0.000000
    16  Na   2.308537   3.033398   3.005758   3.154196   2.761164
                   16
    16  Na   0.000000
 Stoichiometry    H10NaO5(1+)
 Framework group  C1[X(H10NaO5)]
 Deg. of freedom    42
 Full point group                 C1      NOp   1
 Largest Abelian subgroup         C1      NOp   1
 Largest concise Abelian subgroup C1      NOp   1
                         Standard orientation:                         
 ---------------------------------------------------------------------
 Center     Atomic      Atomic             Coordinates (Angstroms)
 Number     Number       Type             X           Y           Z
 ---------------------------------------------------------------------
      1          8           0        2.210295   -1.060306   -0.378349
      2          1           0        2.489886   -1.592153   -1.135143
      3          1           0        2.708056   -1.415859    0.369728
      4          8           0       -1.381605   -1.657002   -0.837001
      5          8           0       -0.169002   -0.134571    2.252884
      6          8           0       -2.146065    1.109090   -0.428636
      7          1           0       -2.243979   -1.251572   -1.000176
      8          1           0       -1.457388   -2.575710   -1.120180
      9          1           0       -2.677146    1.383751    0.330536
     10          1           0       -2.394125    1.717638   -1.137005
     11          8           0        1.468818    1.736155   -0.579311
     12          1           0        0.180546    0.462118    2.926899
     13          1           0       -0.594958   -0.848341    2.744594
     14          1           0        1.558107    2.681388   -0.748285
     15          1           0        2.346745    1.353760   -0.711712
     16         11           0        0.020429    0.012550   -0.068723
 ---------------------------------------------------------------------
 Rotational constants (GHZ):           1.7835464           1.3124058           1.2107474
 Standard basis: Aug-CC-pVDZ (5D, 7F)
 There are   244 symmetry adapted cartesian basis functions of A   symmetry.
 There are   232 symmetry adapted basis functions of A   symmetry.
   232 basis functions,   406 primitive gaussians,   244 cartesian basis functions
    30 alpha electrons       30 beta electrons
       nuclear repulsion energy       302.5972927929 Hartrees.
 NAtoms=   16 NActive=   16 NUniq=   16 SFac= 1.00D+00 NAtFMM=   60 NAOKFM=F Big=F
 Integral buffers will be    131072 words long.
 Raffenetti 2 integral format.
 Two-electron integral symmetry is turned on.
 Nuclear repulsion after empirical dispersion term =      302.5890359030 Hartrees.
 One-electron integrals computed using PRISM.
 NBasis=   232 RedAO= T EigKep=  1.98D-04  NBF=   232
 NBsUse=   232 1.00D-06 EigRej= -1.00D+00 NBFU=   232
 Initial guess from the checkpoint file:  "sim008_type3_coord-5_0-5-0_10C_b1_id81781_step4440.chk"
 B after Tr=     0.000000   -0.000000    0.000000
         Rot=    1.000000    0.000684   -0.000654   -0.000099 Ang=   0.11 deg.
 Requested convergence on RMS density matrix=1.00D-08 within 500 cycles.
 Requested convergence on MAX density matrix=1.00D-06.
 Requested convergence on             energy=1.00D-06.
 Virtual orbitals will be shifted by   1.000 hartree.
 No special actions if energy rises.
 SCF Done:  E(RB3LYP) =  -544.463878656     A.U. after   13 cycles
            NFock= 13  Conv=0.80D-08     -V/T= 2.0058
 DoSCS=F DFT=T ScalE2(SS,OS)=  1.000000  1.000000
 Range of M.O.s used for correlation:     1   232
 NBasis=   232 NAE=    30 NBE=    30 NFC=     0 NFV=     0
 NROrb=    232 NOA=    30 NOB=    30 NVA=   202 NVB=   202

 **** Warning!!: The largest alpha MO coefficient is  0.19035060D+02

 Symmetrizing basis deriv contribution to polar:
 IMax=3 JMax=2 DiffMx= 0.00D+00
 G2DrvN: will do    17 centers at a time, making    1 passes.
 Calling FoFCou, ICntrl=  3107 FMM=F I1Cent=   0 AccDes= 0.00D+00.
 End of G2Drv F.D. properties file   721 does not exist.
 End of G2Drv F.D. properties file   722 does not exist.
 End of G2Drv F.D. properties file   788 does not exist.
          IDoAtm=1111111111111111
          Differentiating once with respect to electric field.
                with respect to dipole field.
          Differentiating once with respect to nuclear coordinates.
 Keep R1 ints in memory in canonical form, NReq=408195286.
          There are    51 degrees of freedom in the 1st order CPHF.  IDoFFX=6 NUNeed=     3.
     48 vectors produced by pass  0 Test12= 1.19D-14 1.96D-09 XBig12= 2.31D+01 1.16D+00.
 AX will form    48 AO Fock derivatives at one time.
     48 vectors produced by pass  1 Test12= 1.19D-14 1.96D-09 XBig12= 1.78D+00 2.47D-01.
     48 vectors produced by pass  2 Test12= 1.19D-14 1.96D-09 XBig12= 2.07D-02 2.21D-02.
     48 vectors produced by pass  3 Test12= 1.19D-14 1.96D-09 XBig12= 3.95D-05 7.69D-04.
     48 vectors produced by pass  4 Test12= 1.19D-14 1.96D-09 XBig12= 4.68D-08 3.16D-05.
     23 vectors produced by pass  5 Test12= 1.19D-14 1.96D-09 XBig12= 3.65D-11 9.61D-07.
      3 vectors produced by pass  6 Test12= 1.19D-14 1.96D-09 XBig12= 2.62D-14 2.17D-08.
 InvSVY:  IOpt=1 It=  1 EMax= 1.51D-15
 Solved reduced A of dimension   266 with    51 vectors.
 Isotropic polarizability for W=    0.000000       47.28 Bohr**3.
 End of Minotr F.D. properties file   721 does not exist.
 End of Minotr F.D. properties file   722 does not exist.
 End of Minotr F.D. properties file   788 does not exist.
 Calling FoFJK, ICntrl=    100127 FMM=F ISym2X=0 I1Cent= 0 IOpClX= 0 NMat=1 NMatS=1 NMatT=0.
 ***** Axes restored to original set *****
 -------------------------------------------------------------------
 Center     Atomic                   Forces (Hartrees/Bohr)
 Number     Number              X              Y              Z
 -------------------------------------------------------------------
      1        8           0.000000625   -0.000001928   -0.000000477
      2        1           0.000000641   -0.000000568   -0.000000419
      3        1           0.000001022   -0.000000862    0.000000274
      4        8           0.000002598    0.000000001    0.000001656
      5        8           0.000000976   -0.000000952   -0.000006934
      6        8           0.000002871    0.000005248   -0.000000298
      7        1           0.000000253    0.000000267    0.000000752
      8        1           0.000000776    0.000000693    0.000000537
      9        1          -0.000002741   -0.000000302    0.000004583
     10        1          -0.000001265   -0.000001643   -0.000002694
     11        8          -0.000001390   -0.000001042   -0.000000741
     12        1           0.000001960   -0.000004441    0.000005380
     13        1          -0.000003933    0.000005969    0.000003456
     14        1          -0.000000542   -0.000000647   -0.000000357
     15        1          -0.000000069   -0.000000743   -0.000000349
     16       11          -0.000001780    0.000000951   -0.000004368
 -------------------------------------------------------------------
 Cartesian Forces:  Max     0.000006934 RMS     0.000002451

 GradGradGradGradGradGradGradGradGradGradGradGradGradGradGradGradGradGrad
 Berny optimization.
 Search for a local minimum.
 Step number   2 out of a maximum of  500
 All quantities printed in internal units (Hartrees-Bohrs-Radians)
 Second derivative matrix not updated -- analytic derivatives used.
 DE=  2.14D-08 DEPred=-1.87D-08 R=-1.14D+00
 Trust test=-1.14D+00 RLast= 9.96D-03 DXMaxT set to 5.00D-02
 ITU= -1  0
     Eigenvalues ---    0.00000   0.00006   0.00013   0.00022   0.00056
     Eigenvalues ---    0.00095   0.00105   0.00114   0.00147   0.00151
     Eigenvalues ---    0.00325   0.00369   0.00456   0.00547   0.00609
     Eigenvalues ---    0.00635   0.00701   0.00885   0.01028   0.01085
     Eigenvalues ---    0.01103   0.01144   0.01403   0.01525   0.02505
     Eigenvalues ---    0.03298   0.04738   0.16073   0.16222   0.16266
     Eigenvalues ---    0.16456   0.16556   0.84007   0.87079   0.87605
     Eigenvalues ---    0.89877   0.91283   1.07158   1.10866   1.12582
     Eigenvalues ---    1.15505   1.16190
 RFO step:  Lambda= 0.00000000D+00 EMin= 3.06887601D-06
 Quintic linear search produced a step of -0.85264.
 B after Tr=     0.000035   -0.000036   -0.000107
         Rot=    1.000000    0.000008    0.000000    0.000001 Ang=   0.00 deg.
 Variable       Old X    -DE/DX   Delta X   Delta X   Delta X     New X
                                 (Linear)    (Quad)   (Total)
    X1       -4.17718   0.00000  -0.00087   0.00043  -0.00041  -4.17759
    Y1       -2.00363  -0.00000   0.00024  -0.00015   0.00007  -2.00355
    Z1        0.71244  -0.00000   0.00040   0.00019   0.00051   0.71294
    X2       -4.70718   0.00000  -0.00040   0.00094   0.00056  -4.70662
    Y2       -3.00669  -0.00000   0.00006  -0.00014  -0.00007  -3.00676
    Z2        2.14335  -0.00000   0.00045   0.00038   0.00077   2.14412
    X3       -5.11586   0.00000  -0.00136   0.00001  -0.00132  -5.11718
    Y3       -2.67776  -0.00000   0.00042  -0.00023   0.00015  -2.67761
    Z3       -0.70145   0.00000   0.00064   0.00050   0.00108  -0.70038
    X4        2.60962   0.00000  -0.00047  -0.00012  -0.00056   2.60906
    Y4       -3.12864   0.00000  -0.00004   0.00008   0.00003  -3.12861
    Z4        1.58954   0.00000  -0.00161   0.00080  -0.00087   1.58867
    X5        0.32510   0.00000   0.00282  -0.00104   0.00182   0.32692
    Y5       -0.26061  -0.00000  -0.00003   0.00023   0.00010  -0.26051
    Z5       -4.25662  -0.00001   0.00068  -0.00085  -0.00028  -4.25690
    X6        4.05423   0.00000  -0.00071   0.00014  -0.00053   4.05370
    Y6        2.09767   0.00001   0.00012  -0.00004   0.00004   2.09771
    Z6        0.81209  -0.00000  -0.00084   0.00062  -0.00036   0.81174
    X7        4.23873   0.00000  -0.00049  -0.00020  -0.00066   4.23806
    Y7       -2.36173   0.00000   0.00011   0.00008   0.00018  -2.36155
    Z7        1.89888   0.00000  -0.00185   0.00122  -0.00070   1.89818
    X8        2.75247   0.00000  -0.00029  -0.00019  -0.00046   2.75202
    Y8       -4.86394   0.00000   0.00002   0.00002   0.00004  -4.86390
    Z8        2.12738   0.00000  -0.00147   0.00064  -0.00086   2.12652
    X9        5.05958  -0.00000  -0.00189   0.00112  -0.00073   5.05885
    Y9        2.61481  -0.00000   0.00008  -0.00002   0.00000   2.61481
    Z9       -0.62200   0.00000  -0.00168   0.00133  -0.00049  -0.62249
   X10        4.52105  -0.00000   0.00052  -0.00087  -0.00031   4.52074
   Y10        3.24969  -0.00000   0.00000   0.00003   0.00002   3.24972
   Z10        2.14964  -0.00000  -0.00117   0.00091  -0.00043   2.14922
   X11       -2.77750  -0.00000  -0.00087   0.00047  -0.00036  -2.77786
   Y11        3.28174  -0.00000   0.00023  -0.00016   0.00006   3.28180
   Z11        1.08631  -0.00000   0.00146  -0.00058   0.00072   1.08702
   X12       -0.33402   0.00000   0.00339  -0.00125   0.00217  -0.33185
   Y12        0.86498  -0.00000  -0.00137   0.00089  -0.00061   0.86437
   Z12       -5.53282   0.00001  -0.00080  -0.00014  -0.00106  -5.53388
   X13        1.13150  -0.00000   0.00325  -0.00133   0.00195   1.13345
   Y13       -1.61064   0.00001  -0.00100   0.00065  -0.00047  -1.61110
   Z13       -5.18282   0.00000   0.00246  -0.00169   0.00069  -5.18213
   X14       -2.94698  -0.00000  -0.00068   0.00040  -0.00023  -2.94721
   Y14        5.06840  -0.00000   0.00023  -0.00015   0.00007   5.06847
   Z14        1.40280  -0.00000   0.00158  -0.00064   0.00075   1.40355
   X15       -4.43672  -0.00000  -0.00095   0.00059  -0.00031  -4.43703
   Y15        2.55916  -0.00000   0.00040  -0.00029   0.00011   2.55927
   Z15        1.33542  -0.00000   0.00140  -0.00009   0.00116   1.33658
   X16       -0.03857  -0.00000  -0.00100   0.00034  -0.00063  -0.03920
   Y16        0.02373   0.00000   0.00054  -0.00022   0.00028   0.02401
   Z16        0.12970  -0.00000   0.00036  -0.00089  -0.00063   0.12907
         Item               Value     Threshold  Converged?
 Maximum Force            0.000007     0.000450     YES
 RMS     Force            0.000002     0.000300     YES
 Maximum Displacement     0.002173     0.001800     NO 
 RMS     Displacement     0.000742     0.001200     YES
 Predicted change in Energy=-6.939251D-09
 GradGradGradGradGradGradGradGradGradGradGradGradGradGradGradGradGradGrad

                          Input orientation:                          
 ---------------------------------------------------------------------
 Center     Atomic      Atomic             Coordinates (Angstroms)
 Number     Number       Type             X           Y           Z
 ---------------------------------------------------------------------
      1          8           0       -2.210684   -1.060235    0.377274
      2          1           0       -2.490634   -1.591107    1.134619
      3          1           0       -2.707895   -1.416931   -0.370623
      4          8           0        1.380655   -1.655591    0.840690
      5          8           0        0.172999   -0.137858   -2.252656
      6          8           0        2.145127    1.110058    0.429553
      7          1           0        2.242687   -1.249678    1.004475
      8          1           0        1.456305   -2.573865    1.125307
      9          1           0        2.677029    1.383696   -0.329408
     10          1           0        2.392272    1.719676    1.137316
     11          8           0       -1.469978    1.736653    0.575228
     12          1           0       -0.175608    0.457407   -2.928403
     13          1           0        0.599795   -0.852559   -2.742264
     14          1           0       -1.559596    2.682117    0.742728
     15          1           0       -2.347977    1.354307    0.707289
     16         11           0       -0.020743    0.012704    0.068301
 ---------------------------------------------------------------------
                    Distance matrix (angstroms):
                    1          2          3          4          5
     1  O    0.000000
     2  H    0.966317   0.000000
     3  H    0.966334   1.530782   0.000000
     4  O    3.669730   3.882967   4.270888   0.000000
     5  O    3.667322   4.547582   3.671188   3.651128   0.000000
     6  O    4.866826   5.411440   5.529717   2.898666   3.555395
     7  H    4.501309   4.747404   5.140733   0.966794   4.016050
     8  H    4.037009   4.067460   4.573496   0.964343   4.357939
     9  H    5.510166   6.139834   6.069811   3.505278   3.504879
    10  H    5.430724   5.899496   6.174454   3.536068   4.457299
    11  O    2.900071   3.525428   3.517409   4.438907   3.769628
    12  H    4.168006   5.105282   4.058061   4.592687   0.965661
    13  H    4.203979   5.012627   4.109016   3.753953   0.965748
    14  H    3.816107   4.390997   4.400038   5.241220   4.463907
    15  H    2.440855   2.979669   2.995195   4.793744   4.164511
    16  Na   2.458150   3.132029   3.075271   2.311647   2.333890
                    6          7          8          9         10
     6  O    0.000000
     7  H    2.430721   0.000000
     8  H    3.811803   1.544820   0.000000
     9  H    0.966343   2.983714   4.389607   0.000000
    10  H    0.966251   2.976085   4.394391   1.531420   0.000000
    11  O    3.671896   4.783963   5.238920   4.259179   3.902973
    12  H    4.133719   4.922379   5.318300   3.968667   4.971659
    13  H    4.037368   4.110335   4.319098   3.890708   4.988036
    14  H    4.036634   5.475845   6.071851   4.558987   4.086472
    15  H    4.508301   5.286138   5.484327   5.130915   4.773717
    16  Na   2.454727   2.755567   3.160581   3.052173   3.143117
                   11         12         13         14         15
    11  O    0.000000
    12  H    3.948075   0.000000
    13  H    4.689748   1.533594   0.000000
    14  H    0.964360   4.510206   5.413139   0.000000
    15  H    0.966701   4.329188   5.045695   1.544629   0.000000
    16  Na   2.308518   3.033476   3.005499   3.154154   2.761200
                   16
    16  Na   0.000000
 Stoichiometry    H10NaO5(1+)
 Framework group  C1[X(H10NaO5)]
 Deg. of freedom    42
 Full point group                 C1      NOp   1
 Largest Abelian subgroup         C1      NOp   1
 Largest concise Abelian subgroup C1      NOp   1
                         Standard orientation:                         
 ---------------------------------------------------------------------
 Center     Atomic      Atomic             Coordinates (Angstroms)
 Number     Number       Type             X           Y           Z
 ---------------------------------------------------------------------
      1          8           0        2.210693   -1.060162   -0.377702
      2          1           0        2.490284   -1.591700   -1.134713
      3          1           0        2.708410   -1.416067    0.370235
      4          8           0       -1.380818   -1.656571   -0.838421
      5          8           0       -0.171584   -0.135715    2.252773
      6          8           0       -2.145521    1.109333   -0.429438
      7          1           0       -2.243017   -1.250960   -1.002077
      8          1           0       -1.456479   -2.575126   -1.122127
      9          1           0       -2.677019    1.383595    0.329580
     10          1           0       -2.393191    1.718241   -1.137629
     11          8           0        1.469388    1.736411   -0.577853
     12          1           0        0.177321    0.460248    2.927751
     13          1           0       -0.597967   -0.850026    2.743309
     14          1           0        1.558744    2.681731   -0.746298
     15          1           0        2.347375    1.354091   -0.710075
     16         11           0        0.020752    0.012692   -0.068439
 ---------------------------------------------------------------------
 Rotational constants (GHZ):           1.7835044           1.3123964           1.2107573
 Standard basis: Aug-CC-pVDZ (5D, 7F)
 There are   244 symmetry adapted cartesian basis functions of A   symmetry.
 There are   232 symmetry adapted basis functions of A   symmetry.
   232 basis functions,   406 primitive gaussians,   244 cartesian basis functions
    30 alpha electrons       30 beta electrons
       nuclear repulsion energy       302.5970931616 Hartrees.
 NAtoms=   16 NActive=   16 NUniq=   16 SFac= 1.00D+00 NAtFMM=   60 NAOKFM=F Big=F
 Integral buffers will be    131072 words long.
 Raffenetti 2 integral format.
 Two-electron integral symmetry is turned on.
 Nuclear repulsion after empirical dispersion term =      302.5888362441 Hartrees.
 One-electron integrals computed using PRISM.
 NBasis=   232 RedAO= T EigKep=  1.98D-04  NBF=   232
 NBsUse=   232 1.00D-06 EigRej= -1.00D+00 NBFU=   232
 Lowest energy guess from the checkpoint file:  "sim008_type3_coord-5_0-5-0_10C_b1_id81781_step4440.chk"
 B after Tr=     0.000000    0.000000   -0.000000
         Rot=    1.000000    0.000448   -0.000299   -0.000089 Ang=   0.06 deg.
 B after Tr=    -0.000000    0.000000   -0.000000
         Rot=    1.000000   -0.000236    0.000355    0.000010 Ang=  -0.05 deg.
 Requested convergence on RMS density matrix=1.00D-08 within 500 cycles.
 Requested convergence on MAX density matrix=1.00D-06.
 Requested convergence on             energy=1.00D-06.
 Virtual orbitals will be shifted by   1.000 hartree.
 No special actions if energy rises.
 SCF Done:  E(RB3LYP) =  -544.463878663     A.U. after   12 cycles
            NFock= 12  Conv=0.72D-08     -V/T= 2.0058
 DoSCS=F DFT=T ScalE2(SS,OS)=  1.000000  1.000000
 Range of M.O.s used for correlation:     1   232
 NBasis=   232 NAE=    30 NBE=    30 NFC=     0 NFV=     0
 NROrb=    232 NOA=    30 NOB=    30 NVA=   202 NVB=   202

 **** Warning!!: The largest alpha MO coefficient is  0.19042432D+02

 Symmetrizing basis deriv contribution to polar:
 IMax=3 JMax=2 DiffMx= 0.00D+00
 G2DrvN: will do    17 centers at a time, making    1 passes.
 Calling FoFCou, ICntrl=  3107 FMM=F I1Cent=   0 AccDes= 0.00D+00.
 End of G2Drv F.D. properties file   721 does not exist.
 End of G2Drv F.D. properties file   722 does not exist.
 End of G2Drv F.D. properties file   788 does not exist.
          IDoAtm=1111111111111111
          Differentiating once with respect to electric field.
                with respect to dipole field.
          Differentiating once with respect to nuclear coordinates.
 Keep R1 ints in memory in canonical form, NReq=408195286.
          There are    51 degrees of freedom in the 1st order CPHF.  IDoFFX=6 NUNeed=     3.
     48 vectors produced by pass  0 Test12= 1.19D-14 1.96D-09 XBig12= 2.31D+01 1.16D+00.
 AX will form    48 AO Fock derivatives at one time.
     48 vectors produced by pass  1 Test12= 1.19D-14 1.96D-09 XBig12= 1.78D+00 2.47D-01.
     48 vectors produced by pass  2 Test12= 1.19D-14 1.96D-09 XBig12= 2.07D-02 2.20D-02.
     48 vectors produced by pass  3 Test12= 1.19D-14 1.96D-09 XBig12= 3.95D-05 7.69D-04.
     48 vectors produced by pass  4 Test12= 1.19D-14 1.96D-09 XBig12= 4.68D-08 3.16D-05.
     23 vectors produced by pass  5 Test12= 1.19D-14 1.96D-09 XBig12= 3.65D-11 9.60D-07.
      3 vectors produced by pass  6 Test12= 1.19D-14 1.96D-09 XBig12= 2.62D-14 2.17D-08.
 InvSVY:  IOpt=1 It=  1 EMax= 4.44D-15
 Solved reduced A of dimension   266 with    51 vectors.
 Isotropic polarizability for W=    0.000000       47.28 Bohr**3.
 End of Minotr F.D. properties file   721 does not exist.
 End of Minotr F.D. properties file   722 does not exist.
 End of Minotr F.D. properties file   788 does not exist.
 Calling FoFJK, ICntrl=    100127 FMM=F ISym2X=0 I1Cent= 0 IOpClX= 0 NMat=1 NMatS=1 NMatT=0.
 ***** Axes restored to original set *****
 -------------------------------------------------------------------
 Center     Atomic                   Forces (Hartrees/Bohr)
 Number     Number              X              Y              Z
 -------------------------------------------------------------------
      1        8           0.000000811   -0.000001899   -0.000000408
      2        1           0.000000436   -0.000000584   -0.000000303
      3        1           0.000000856   -0.000000855   -0.000000162
      4        8           0.000001329    0.000001126    0.000000843
      5        8          -0.000000138    0.000000031    0.000000451
      6        8          -0.000000982    0.000001523    0.000000514
      7        1           0.000000411    0.000000603    0.000000535
      8        1           0.000000703    0.000000455    0.000000527
      9        1           0.000000095    0.000000841    0.000000184
     10        1          -0.000000533    0.000000812    0.000000599
     11        8          -0.000001350   -0.000001177   -0.000000658
     12        1          -0.000000897    0.000000494   -0.000000217
     13        1          -0.000000059   -0.000000122   -0.000000645
     14        1          -0.000000635   -0.000000482   -0.000000518
     15        1          -0.000000193   -0.000000705   -0.000000598
     16       11           0.000000146   -0.000000061   -0.000000145
 -------------------------------------------------------------------
 Cartesian Forces:  Max     0.000001899 RMS     0.000000721

 GradGradGradGradGradGradGradGradGradGradGradGradGradGradGradGradGradGrad
 Berny optimization.
 Search for a local minimum.
 Step number   3 out of a maximum of  500
 All quantities printed in internal units (Hartrees-Bohrs-Radians)
 Second derivative matrix not updated -- analytic derivatives used.
 DE=  1.44D-08 DEPred=-6.94D-09 R=-2.08D+00
 Trust test=-2.08D+00 RLast= 5.87D-03 DXMaxT set to 5.00D-02
 ITU= -1 -1  0
     Eigenvalues ---    0.00000   0.00006   0.00013   0.00022   0.00056
     Eigenvalues ---    0.00095   0.00105   0.00114   0.00147   0.00151
     Eigenvalues ---    0.00325   0.00369   0.00456   0.00547   0.00609
     Eigenvalues ---    0.00635   0.00701   0.00884   0.01028   0.01085
     Eigenvalues ---    0.01103   0.01144   0.01403   0.01524   0.02505
     Eigenvalues ---    0.03299   0.04737   0.16073   0.16222   0.16266
     Eigenvalues ---    0.16456   0.16556   0.84008   0.87079   0.87606
     Eigenvalues ---    0.89881   0.91285   1.07160   1.10871   1.12583
     Eigenvalues ---    1.15507   1.16191
 RFO step:  Lambda= 0.00000000D+00 EMin= 2.23575565D-06
 Quintic linear search produced a step of -0.85345.
 B after Tr=     0.000248   -0.000211   -0.000006
         Rot=    1.000000    0.000049   -0.000011    0.000002 Ang=   0.01 deg.
 Variable       Old X    -DE/DX   Delta X   Delta X   Delta X     New X
                                 (Linear)    (Quad)   (Total)
    X1       -4.17759   0.00000  -0.00052   0.00192   0.00166  -4.17593
    Y1       -2.00355  -0.00000   0.00018  -0.00052  -0.00047  -2.00402
    Z1        0.71294  -0.00000  -0.00004  -0.00249  -0.00224   0.71071
    X2       -4.70662   0.00000  -0.00089  -0.00023  -0.00083  -4.70744
    Y2       -3.00676  -0.00000   0.00012  -0.00039  -0.00025  -3.00701
    Z2        2.14412  -0.00000  -0.00021  -0.00320  -0.00301   2.14111
    X3       -5.11718   0.00000  -0.00024   0.00411   0.00409  -5.11309
    Y3       -2.67761  -0.00000   0.00029  -0.00063  -0.00060  -2.67821
    Z3       -0.70038  -0.00000  -0.00028  -0.00389  -0.00379  -0.70417
    X4        2.60906   0.00000   0.00001   0.00122   0.00150   2.61056
    Y4       -3.12861   0.00000  -0.00006   0.00038   0.00026  -3.12835
    Z4        1.58867   0.00000  -0.00088   0.00501   0.00438   1.59305
    X5        0.32692  -0.00000   0.00127  -0.00806  -0.00664   0.32028
    Y5       -0.26051   0.00000  -0.00011   0.00063  -0.00012  -0.26063
    Z5       -4.25690   0.00000   0.00091  -0.00112  -0.00019  -4.25709
    X6        4.05370  -0.00000  -0.00026   0.00195   0.00197   4.05567
    Y6        2.09771   0.00000   0.00008  -0.00018  -0.00025   2.09746
    Z6        0.81174   0.00000  -0.00054   0.00173   0.00089   0.81263
    X7        4.23806   0.00000   0.00008   0.00139   0.00175   4.23982
    Y7       -2.36155   0.00000  -0.00004  -0.00005  -0.00013  -2.36168
    Z7        1.89818   0.00000  -0.00126   0.00512   0.00400   1.90218
    X8        2.75202   0.00000   0.00010   0.00073   0.00110   2.75312
    Y8       -4.86390   0.00000  -0.00001   0.00036   0.00033  -4.86357
    Z8        2.12652   0.00000  -0.00074   0.00505   0.00472   2.13124
    X9        5.05885   0.00000  -0.00127   0.00455   0.00352   5.06237
    Y9        2.61481   0.00000   0.00008  -0.00027  -0.00048   2.61433
    Z9       -0.62249   0.00000  -0.00126   0.00353   0.00190  -0.62059
   X10        4.52074  -0.00000   0.00079  -0.00069   0.00041   4.52114
   Y10        3.24972   0.00000  -0.00002   0.00017   0.00013   3.24985
   Z10        2.14922   0.00000  -0.00081   0.00235   0.00111   2.15033
   X11       -2.77786  -0.00000  -0.00056   0.00201   0.00173  -2.77613
   Y11        3.28180  -0.00000   0.00018  -0.00064  -0.00056   3.28124
   Z11        1.08702  -0.00000   0.00085  -0.00284  -0.00226   1.08476
   X12       -0.33185  -0.00000   0.00154  -0.00949  -0.00783  -0.33968
   Y12        0.86437   0.00000  -0.00086   0.00449   0.00288   0.86726
   Z12       -5.53388  -0.00000   0.00011   0.00303   0.00306  -5.53082
   X13        1.13345  -0.00000   0.00159  -0.00945  -0.00774   1.12571
   Y13       -1.61110  -0.00000  -0.00060   0.00325   0.00192  -1.60918
   Z13       -5.18213  -0.00000   0.00188  -0.00612  -0.00412  -5.18625
   X14       -2.94721  -0.00000  -0.00048   0.00154   0.00135  -2.94586
   Y14        5.06847  -0.00000   0.00017  -0.00079  -0.00068   5.06779
   Z14        1.40355  -0.00000   0.00094  -0.00227  -0.00177   1.40178
   X15       -4.43703  -0.00000  -0.00068   0.00209   0.00170  -4.43534
   Y15        2.55927  -0.00000   0.00031  -0.00110  -0.00086   2.55841
   Z15        1.33658  -0.00000   0.00041  -0.00354  -0.00330   1.33329
   X16       -0.03920   0.00000  -0.00046   0.00246   0.00225  -0.03695
   Y16        0.02401  -0.00000   0.00030  -0.00124  -0.00114   0.02287
   Z16        0.12907  -0.00000   0.00090  -0.00027   0.00062   0.12969
         Item               Value     Threshold  Converged?
 Maximum Force            0.000002     0.000450     YES
 RMS     Force            0.000001     0.000300     YES
 Maximum Displacement     0.007827     0.001800     NO 
 RMS     Displacement     0.002793     0.001200     NO 
 Predicted change in Energy=-3.125257D-08
 Optimization completed on the basis of negligible forces.
    -- Stationary point found.
 GradGradGradGradGradGradGradGradGradGradGradGradGradGradGradGradGradGrad

                          Input orientation:                          
 ---------------------------------------------------------------------
 Center     Atomic      Atomic             Coordinates (Angstroms)
 Number     Number       Type             X           Y           Z
 ---------------------------------------------------------------------
      1          8           0       -2.210684   -1.060235    0.377274
      2          1           0       -2.490634   -1.591107    1.134619
      3          1           0       -2.707895   -1.416931   -0.370623
      4          8           0        1.380655   -1.655591    0.840690
      5          8           0        0.172999   -0.137858   -2.252656
      6          8           0        2.145127    1.110058    0.429553
      7          1           0        2.242687   -1.249678    1.004475
      8          1           0        1.456305   -2.573865    1.125307
      9          1           0        2.677029    1.383696   -0.329408
     10          1           0        2.392272    1.719676    1.137316
     11          8           0       -1.469978    1.736653    0.575228
     12          1           0       -0.175608    0.457407   -2.928403
     13          1           0        0.599795   -0.852559   -2.742264
     14          1           0       -1.559596    2.682117    0.742728
     15          1           0       -2.347977    1.354307    0.707289
     16         11           0       -0.020743    0.012704    0.068301
 ---------------------------------------------------------------------
                    Distance matrix (angstroms):
                    1          2          3          4          5
     1  O    0.000000
     2  H    0.966317   0.000000
     3  H    0.966334   1.530782   0.000000
     4  O    3.669730   3.882967   4.270888   0.000000
     5  O    3.667322   4.547582   3.671188   3.651128   0.000000
     6  O    4.866826   5.411440   5.529717   2.898666   3.555395
     7  H    4.501309   4.747404   5.140733   0.966794   4.016050
     8  H    4.037009   4.067460   4.573496   0.964343   4.357939
     9  H    5.510166   6.139834   6.069811   3.505278   3.504879
    10  H    5.430724   5.899496   6.174454   3.536068   4.457299
    11  O    2.900071   3.525428   3.517409   4.438907   3.769628
    12  H    4.168006   5.105282   4.058061   4.592687   0.965661
    13  H    4.203979   5.012627   4.109016   3.753953   0.965748
    14  H    3.816107   4.390997   4.400038   5.241220   4.463907
    15  H    2.440855   2.979669   2.995195   4.793744   4.164511
    16  Na   2.458150   3.132029   3.075271   2.311647   2.333890
                    6          7          8          9         10
     6  O    0.000000
     7  H    2.430721   0.000000
     8  H    3.811803   1.544820   0.000000
     9  H    0.966343   2.983714   4.389607   0.000000
    10  H    0.966251   2.976085   4.394391   1.531420   0.000000
    11  O    3.671896   4.783963   5.238920   4.259179   3.902973
    12  H    4.133719   4.922379   5.318300   3.968667   4.971659
    13  H    4.037368   4.110335   4.319098   3.890708   4.988036
    14  H    4.036634   5.475845   6.071851   4.558987   4.086472
    15  H    4.508301   5.286138   5.484327   5.130915   4.773717
    16  Na   2.454727   2.755567   3.160581   3.052173   3.143117
                   11         12         13         14         15
    11  O    0.000000
    12  H    3.948075   0.000000
    13  H    4.689748   1.533594   0.000000
    14  H    0.964360   4.510206   5.413139   0.000000
    15  H    0.966701   4.329188   5.045695   1.544629   0.000000
    16  Na   2.308518   3.033476   3.005499   3.154154   2.761200
                   16
    16  Na   0.000000
 Stoichiometry    H10NaO5(1+)
 Framework group  C1[X(H10NaO5)]
 Deg. of freedom    42
 Full point group                 C1      NOp   1
 Largest Abelian subgroup         C1      NOp   1
 Largest concise Abelian subgroup C1      NOp   1
                         Standard orientation:                         
 ---------------------------------------------------------------------
 Center     Atomic      Atomic             Coordinates (Angstroms)
 Number     Number       Type             X           Y           Z
 ---------------------------------------------------------------------
      1          8           0        2.210693   -1.060162   -0.377702
      2          1           0        2.490284   -1.591700   -1.134713
      3          1           0        2.708410   -1.416067    0.370235
      4          8           0       -1.380818   -1.656571   -0.838421
      5          8           0       -0.171584   -0.135715    2.252773
      6          8           0       -2.145521    1.109333   -0.429438
      7          1           0       -2.243017   -1.250960   -1.002077
      8          1           0       -1.456479   -2.575126   -1.122127
      9          1           0       -2.677019    1.383595    0.329580
     10          1           0       -2.393191    1.718241   -1.137629
     11          8           0        1.469388    1.736411   -0.577853
     12          1           0        0.177321    0.460248    2.927751
     13          1           0       -0.597967   -0.850026    2.743309
     14          1           0        1.558744    2.681731   -0.746298
     15          1           0        2.347375    1.354091   -0.710075
     16         11           0        0.020752    0.012692   -0.068439
 ---------------------------------------------------------------------
 Rotational constants (GHZ):           1.7835044           1.3123964           1.2107573

 **********************************************************************

            Population analysis using the SCF Density.

 **********************************************************************

 Orbital symmetries:
       Occupied  (A) (A) (A) (A) (A) (A) (A) (A) (A) (A) (A) (A)
                 (A) (A) (A) (A) (A) (A) (A) (A) (A) (A) (A) (A)
                 (A) (A) (A) (A) (A) (A)
       Virtual   (A) (A) (A) (A) (A) (A) (A) (A) (A) (A) (A) (A)
                 (A) (A) (A) (A) (A) (A) (A) (A) (A) (A) (A) (A)
                 (A) (A) (A) (A) (A) (A) (A) (A) (A) (A) (A) (A)
                 (A) (A) (A) (A) (A) (A) (A) (A) (A) (A) (A) (A)
                 (A) (A) (A) (A) (A) (A) (A) (A) (A) (A) (A) (A)
                 (A) (A) (A) (A) (A) (A) (A) (A) (A) (A) (A) (A)
                 (A) (A) (A) (A) (A) (A) (A) (A) (A) (A) (A) (A)
                 (A) (A) (A) (A) (A) (A) (A) (A) (A) (A) (A) (A)
                 (A) (A) (A) (A) (A) (A) (A) (A) (A) (A) (A) (A)
                 (A) (A) (A) (A) (A) (A) (A) (A) (A) (A) (A) (A)
                 (A) (A) (A) (A) (A) (A) (A) (A) (A) (A) (A) (A)
                 (A) (A) (A) (A) (A) (A) (A) (A) (A) (A) (A) (A)
                 (A) (A) (A) (A) (A) (A) (A) (A) (A) (A) (A) (A)
                 (A) (A) (A) (A) (A) (A) (A) (A) (A) (A) (A) (A)
                 (A) (A) (A) (A) (A) (A) (A) (A) (A) (A) (A) (A)
                 (A) (A) (A) (A) (A) (A) (A) (A) (A) (A) (A) (A)
                 (A) (A) (A) (A) (A) (A) (A) (A) (A) (A)
 The electronic state is 1-A.
 Alpha  occ. eigenvalues --  -38.57490 -19.31365 -19.31326 -19.31211 -19.30110
 Alpha  occ. eigenvalues --  -19.30104  -2.31044  -1.24396  -1.24370  -1.24305
 Alpha  occ. eigenvalues --   -1.17571  -1.17452  -1.17342  -1.16315  -1.16199
 Alpha  occ. eigenvalues --   -0.69039  -0.69021  -0.68989  -0.68388  -0.68358
 Alpha  occ. eigenvalues --   -0.57245  -0.56254  -0.56128  -0.55127  -0.55065
 Alpha  occ. eigenvalues --   -0.48130  -0.47956  -0.47644  -0.46828  -0.46779
 Alpha virt. eigenvalues --   -0.16265  -0.13842  -0.12976  -0.12433  -0.10618
 Alpha virt. eigenvalues --   -0.07998  -0.07941  -0.07730  -0.07159  -0.06200
 Alpha virt. eigenvalues --   -0.05638  -0.05215  -0.05035  -0.04862  -0.04840
 Alpha virt. eigenvalues --   -0.04112  -0.03397  -0.02771  -0.00320   0.00516
 Alpha virt. eigenvalues --    0.00682   0.00993   0.01958   0.02012   0.02109
 Alpha virt. eigenvalues --    0.02232   0.02621   0.03452   0.03626   0.04049
 Alpha virt. eigenvalues --    0.04401   0.04863   0.05022   0.05314   0.05468
 Alpha virt. eigenvalues --    0.06027   0.06737   0.06817   0.07095   0.08897
 Alpha virt. eigenvalues --    0.09058   0.10575   0.11020   0.11858   0.13078
 Alpha virt. eigenvalues --    0.13143   0.14612   0.15928   0.16865   0.17223
 Alpha virt. eigenvalues --    0.17768   0.19762   0.20312   0.22097   0.22429
 Alpha virt. eigenvalues --    0.22658   0.22885   0.23972   0.24711   0.25412
 Alpha virt. eigenvalues --    0.26330   0.26846   0.28545   0.29831   0.30876
 Alpha virt. eigenvalues --    0.31038   0.32453   0.32633   0.33087   0.34117
 Alpha virt. eigenvalues --    0.34667   0.35196   0.36081   0.36202   0.37423
 Alpha virt. eigenvalues --    0.37954   0.38504   0.39553   0.39800   0.40912
 Alpha virt. eigenvalues --    0.40969   0.42744   0.43029   0.43350   0.45361
 Alpha virt. eigenvalues --    0.46003   0.46655   0.46878   0.49713   0.52426
 Alpha virt. eigenvalues --    0.52974   0.57026   0.59373   0.61221   0.61530
 Alpha virt. eigenvalues --    0.63232   0.68645   0.71471   0.72019   0.73410
 Alpha virt. eigenvalues --    0.76112   0.79612   0.80121   0.81589   0.82618
 Alpha virt. eigenvalues --    0.82691   0.84164   0.86352   0.88250   0.90282
 Alpha virt. eigenvalues --    0.90601   0.91714   0.92268   0.94304   0.94859
 Alpha virt. eigenvalues --    0.95136   1.01348   1.03442   1.04906   1.05846
 Alpha virt. eigenvalues --    1.08197   1.10383   1.12324   1.13329   1.15777
 Alpha virt. eigenvalues --    1.16695   1.19933   1.22273   1.24571   1.28863
 Alpha virt. eigenvalues --    1.31055   1.33527   1.39362   1.48246   1.51678
 Alpha virt. eigenvalues --    1.56307   1.61760   1.62155   1.62638   1.65263
 Alpha virt. eigenvalues --    1.66494   1.66814   1.70134   1.74297   1.75801
 Alpha virt. eigenvalues --    1.76780   1.77883   1.78131   1.78158   1.79585
 Alpha virt. eigenvalues --    1.80370   1.98202   2.00674   2.01945   2.02133
 Alpha virt. eigenvalues --    2.02932   2.03201   2.04189   2.04537   2.06105
 Alpha virt. eigenvalues --    2.08028   2.14197   2.15711   2.18643   2.21775
 Alpha virt. eigenvalues --    2.22608   2.32717   2.35407   2.37933   2.38664
 Alpha virt. eigenvalues --    2.43519   2.47222   2.59498   2.63203   2.64546
 Alpha virt. eigenvalues --    2.67060   2.76252   3.16249   3.17207   3.17626
 Alpha virt. eigenvalues --    3.18095   3.18374   3.19418   3.20165   3.22975
 Alpha virt. eigenvalues --    3.23306   3.25048   3.26157   3.27013   3.28859
 Alpha virt. eigenvalues --    3.29463   3.33267   3.52857   3.53289   3.55557
 Alpha virt. eigenvalues --    3.58863   3.59806   3.75917   3.76601   3.77652
 Alpha virt. eigenvalues --    3.79114   3.79819
          Condensed to atoms (all electrons):
               1          2          3          4          5          6
     1  O    7.916301   0.316907   0.317029  -0.015238  -0.021855  -0.003024
     2  H    0.316907   0.568037  -0.095989   0.001851  -0.000254  -0.000534
     3  H    0.317029  -0.095989   0.570021  -0.000904   0.009193  -0.000230
     4  O   -0.015238   0.001851  -0.000904   7.702624  -0.009646  -0.025459
     5  O   -0.021855  -0.000254   0.009193  -0.009646   7.865038  -0.023495
     6  O   -0.003024  -0.000534  -0.000230  -0.025459  -0.023495   7.930547
     7  H   -0.000761  -0.000317  -0.000473   0.372471  -0.001390   0.012999
     8  H    0.001700   0.000192   0.000511   0.317117   0.002284   0.000017
     9  H   -0.000262  -0.000097   0.000120   0.003023   0.011469   0.320992
    10  H   -0.000482  -0.000065  -0.000072   0.002454  -0.000416   0.313503
    11  O   -0.029167   0.003167   0.001722   0.001622  -0.009166  -0.017570
    12  H   -0.000819   0.000101   0.000362   0.000231   0.342258  -0.000086
    13  H    0.000103   0.000115   0.000256   0.003783   0.349987   0.000021
    14  H   -0.000054   0.000337   0.000645   0.000320   0.001953   0.001755
    15  H    0.013578   0.001300   0.000396  -0.001049  -0.001516  -0.000796
    16  Na  -0.090051   0.001056  -0.005787  -0.044878  -0.104296  -0.095262
[...]

 ----------------------------------------------------------------------

 Dipole orientation:
     8         -4.16812703          2.08231099         -0.51522103
     1         -4.67612345          3.26060570         -1.81449370
     1         -5.12995449          2.57126407          0.95803275
     8          2.63004662          3.30332673         -1.13586462
     8          0.26131707         -0.28562736          4.25982321
     8          4.06773995         -1.98083955         -1.01072022
     1          4.26436175          2.58047154         -1.51577937
     1          2.77953203          5.09295386         -1.44542169
     1          5.05127546         -2.67787079          0.36096960
     1          4.55637331         -2.95305266         -2.47705397
     8         -2.75762206         -3.11335417         -1.53975672
     1         -0.41585930         -1.56374962          5.37241415
     1          1.05222721          0.93493776          5.36223070
     1         -2.92034221         -4.84479556         -2.08444457
     1         -4.41348625         -2.36323765         -1.72041556
    11         -0.03719071         -0.00728736         -0.13166461

 Electric dipole moment (dipole orientation):
 (Debye = 10**-18 statcoulomb cm , SI units = C m)
                  (au)            (Debye)         (10**-30 SI)
   Tot        0.243863D+00      0.619838D+00      0.206756D+01
   x          0.000000D+00      0.000000D+00      0.000000D+00
   y          0.000000D+00      0.000000D+00      0.000000D+00
   z          0.243863D+00      0.619838D+00      0.206756D+01

 Dipole polarizability, Alpha (dipole orientation).
 (esu units = cm**3 , SI units = C**2 m**2 J**-1)
 Alpha(0;0):
               (au)            (10**-24 esu)      (10**-40 SI)
   iso        0.472784D+02      0.700594D+01      0.779516D+01
   aniso      0.326730D+01      0.484164D+00      0.538705D+00
   xx         0.469206D+02      0.695292D+01      0.773617D+01
   yx        -0.765117D+00     -0.113379D+00     -0.126151D+00
   yy         0.491276D+02      0.727996D+01      0.810005D+01
   zx        -0.116729D+00     -0.172975D-01     -0.192460D-01
   zy         0.271080D+00      0.401698D-01      0.446950D-01
   zz         0.457870D+02      0.678493D+01      0.754926D+01

 ----------------------------------------------------------------------

 Test job not archived.
 1\1\GINC-N642\Freq\RB3LYP\Aug-CC-pVDZ\H10Na1O5(1+)\HNR2\19-Jul-2022\0\
 \#N Geom=AllCheck Guess=TCheck SCRF=Check Test GenChk RB3LYP/Aug-CC-pV
 DZ Freq\\MD frame sim008_type3_coord-5_0-5-0_10C_b1_id81781_step4440\\
 1,1\O,-2.2106840333,-1.0602350366,0.3772742136\H,-2.4906338849,-1.5911
 069541,1.1346193776\H,-2.7078950793,-1.4169306663,-0.3706231037\O,1.38
 06550961,-1.6555909552,0.8406900241\O,0.1729985323,-0.1378583969,-2.25
 2655794\O,2.1451266592,1.1100583024,0.4295533199\H,2.2426872177,-1.249
 677608,1.0044752157\H,1.4563052127,-2.5738650843,1.1253067555\H,2.6770
 285928,1.3836955449,-0.3294077018\H,2.3922715304,1.7196756363,1.137315
 9678\O,-1.4699779117,1.7366530294,0.575228102\H,-0.1756075251,0.457407
 3866,-2.9284026895\H,0.5997950951,-0.8525591755,-2.742263981\H,-1.5595
 961589,2.6821167927,0.742727685\H,-2.3479771411,1.3543074143,0.7072886
 376\Na,-0.0207432683,0.0127040316,0.0683005918\\Version=ES64L-G16RevB.
 01\State=1-A\HF=-544.4638787\RMSD=4.420e-09\RMSF=7.246e-07\ZeroPoint=0
 .119135\Thermal=0.13718\Dipole=0.0037413,-0.0311459,-0.2418371\DipoleD
 eriv=-0.5865859,0.0735554,0.0263789,0.0677061,-0.5534194,-0.0111571,0.
 0276047,-0.0113501,-0.5089565,0.3015225,-0.0473789,0.0055935,-0.047057
 4,0.2663286,0.0124955,0.0046287,0.0163674,0.292685,0.2955919,-0.040524
 1,-0.0226604,-0.0398633,0.2692074,-0.0080843,-0.0241034,-0.0131852,0.2
 951664,-0.5203201,-0.0238792,0.0406825,-0.013795,-0.6078095,-0.0017483
 ,0.0351097,-0.0082279,-0.5956372,-0.607254,-0.0421987,-0.0022723,-0.03
 93379,-0.542138,0.0056902,-0.0027322,0.0044013,-0.5116761,-0.5809677,0
 .0690811,-0.0395407,0.063176,-0.5522767,0.0161834,-0.0401907,0.0159291
 ,-0.5173133,0.2228633,0.0273934,-0.0303962,0.022808,0.4004783,-0.01781
 03,-0.025951,-0.0152524,0.2970551,0.2839968,0.0230768,-0.0263347,0.025
 7255,0.2680741,0.0269575,-0.0263586,0.0260562,0.3184676,0.2926966,-0.0
 362707,0.0291147,-0.0351817,0.2721238,0.0109041,0.0308286,0.0163782,0.
 2960645,0.301628,-0.0475432,-0.0005648,-0.0472997,0.2634495,-0.0117015
 ,0.0006078,-0.0149671,0.2961856,-0.5155676,-0.0284027,-0.0273076,-0.01
 82948,-0.6054833,0.0008658,-0.0232786,0.0048773,-0.601839,0.3244671,0.
 0124143,-0.0108758,0.0111219,0.3071228,0.011844,-0.0088689,0.009195,0.
 2385886,0.3192836,0.0176483,0.0196067,0.0155576,0.2987427,-0.0248457,0
 .0168952,-0.0208364,0.252422,0.2805954,0.0275341,0.0187569,0.0304796,0
 .2627281,-0.0176794,0.0186799,-0.0169203,0.3285203,0.2190543,0.0292611
 ,0.0204448,0.0244526,0.4006776,0.0085775,0.0172279,0.0068774,0.2990294
 ,0.9689959,-0.0137667,-0.0006253,-0.0201975,0.852194,-0.0004917,-0.000
 0991,0.0006573,0.8212376\Polar=46.9182903,0.7739509,49.1433071,0.03578
 7,-0.1490537,45.773648\Quadrupole=4.1045239,-0.4222976,-3.6822263,2.35
 85357,-0.1202168,0.0108016\PG=C01 [X(H10Na1O5)]\NImag=0\\0.22471304,0.
 21433645,0.27469278,0.08899511,-0.07739258,0.65076764,-0.06610054,-0.1
 0244001,0.11934107,0.06010293,-0.09281605,-0.17200699,0.22657921,0.091
 58224,0.16555129,0.08387864,0.18529052,-0.32665687,-0.09807511,-0.2099
 1495,0.35435659,-0.15064010,-0.10671191,-0.20856185,0.00566402,0.00140
 150,0.01398994,0.14509021,-0.11717501,-0.09458349,-0.14975110,0.011755
 88,0.00744631,0.02439529,0.10595653,0.08769635,-0.17319996,-0.10863543
 ,-0.31950624,-0.02258074,-0.01780444,-0.02823950,0.19607128,0.12679213
 ,0.34705726,-0.00169751,0.00069635,-0.00060003,0.00084251,-0.00011115,
 -0.00013183,0.00008960,-0.00003345,0.00033477,0.47321373,-0.00042112,0
 .00097763,0.00003008,0.00042763,-0.00034092,-0.00006953,0.00020754,-0.
 00015791,0.00001073,0.12817615,0.61204910,-0.00022461,0.00011416,0.000
 83586,-0.00036922,-0.00003217,-0.00039454,0.00028537,-0.00006847,-0.00
 018674,0.11347799,-0.12906125,0.07928386,-0.00004329,-0.00054335,0.001
 45200,-0.00023384,0.00015344,-0.00017103,0.00074671,0.00055232,-0.0009
 0641,0.00052484,0.00054617,-0.00093040,0.18100624,-0.00070481,0.000687
 11,0.00065266,0.00007361,0.00004251,-0.00011928,0.00070702,-0.00037226
 ,-0.00037505,0.00040504,0.00043621,0.00118350,-0.29292035,0.50159645,0
 .00076642,0.00022304,-0.00062834,0.00011600,-0.00004991,0.00009676,-0.
 00045177,-0.00007349,-0.00019117,-0.00042605,0.00072100,-0.00075987,0.
 01022146,-0.02367990,0.47497077,-0.00007936,-0.00039175,0.00002367,-0.
 00004102,0.00011593,-0.00007796,0.00001180,0.00007065,0.00009346,0.000
 83026,-0.00210766,0.00013130,0.00020806,-0.00075710,-0.00062542,0.2353
 5301,-0.00039927,0.00034809,-0.00000012,0.00016813,-0.00007470,-0.0000
 2828,0.00009885,-0.00008781,0.00003617,-0.00090955,-0.00646790,0.00190
 846,-0.00077124,0.00056678,-0.00057134,0.19776115,0.29616333,-0.000031
 68,-0.00001976,0.00035922,-0.00010674,-0.00003808,-0.00010296,0.000109
 84,0.00005814,-0.00015444,-0.00011320,0.00147679,0.00177829,-0.0013131
 2,-0.00092169,-0.00080110,-0.12946213,0.12565997,0.61948302,-0.0000196
 7,0.00003277,0.00001914,-0.00003755,-0.00000241,-0.00004309,-0.0000268
 4,0.00002082,-0.00000435,-0.41648088,-0.19493849,-0.07794672,0.0000069
 0,-0.00011830,0.00020621,-0.00210176,-0.00042011,0.00047819,0.41791833
 ,0.00049516,-0.00035631,0.00011370,-0.00024432,0.00008683,0.00003416,-
 0.00003603,0.00005162,-0.00006871,-0.14694580,-0.12114690,-0.01431809,
 -0.00022282,-0.00059060,-0.00001155,-0.00101177,0.00126425,-0.00148972
 ,0.18684140,0.13590382,-0.00005603,0.00004015,-0.00005443,-0.00000940,
 0.00002992,0.00003860,0.00000916,-0.00003296,0.00005896,-0.09191462,-0
 .02993886,-0.02463653,0.00054300,-0.00005388,0.00014296,0.00060193,-0.
 00134572,-0.00303019,0.08027825,0.02339588,0.02416934,0.00042619,-0.00
 068957,0.00024833,-0.00052089,0.00028258,0.00000963,-0.00013179,0.0000
 8816,-0.00012429,-0.04862266,0.06236431,-0.03221207,-0.00021597,-0.000
 01183,-0.00008486,0.00014526,-0.00062953,0.00000146,0.00258280,-0.0413
 6483,0.01270560,0.04525942,-0.00024474,-0.00013136,-0.00013426,0.00012
 897,0.00011186,0.00004785,-0.00002683,0.00007737,0.00002556,0.01218947
 ,-0.47220401,0.13677040,-0.00015225,0.00007212,-0.00021315,-0.00037660
 ,0.00012373,0.00000814,0.00922457,-0.01731133,0.00784693,-0.02081427,0
 .48996005,0.00013856,-0.00018796,-0.00032750,0.00010288,0.00000350,0.0
 0022409,-0.00014438,0.00011037,0.00006765,-0.01798804,0.15332783,-0.05
 161863,0.00000675,-0.00020842,-0.00005840,-0.00004817,-0.00018472,0.00
 069304,-0.00171410,-0.00857026,0.00154027,0.01953449,-0.14478681,0.049
 45325,0.00002878,0.00009103,-0.00010865,0.00001820,-0.00002023,0.00001
 141,-0.00004675,-0.00004698,0.00004813,-0.00009668,0.00011215,0.000005
 97,0.00060298,0.00084842,0.00051567,-0.16911184,-0.08706699,0.22671248
 ,0.00021674,-0.00022235,-0.00025013,0.00013145,0.00004811,-0.00005107,
 0.16413538,0.00006667,-0.00009983,-0.00006554,-0.00002345,0.00002030,0
 .00001087,-0.00005810,0.00001484,0.00002921,0.00030899,-0.00079631,-0.
 00059356,0.00080888,-0.00032189,0.00024517,-0.10316193,-0.06949563,0.1
 1798710,-0.00088067,0.00040630,0.00132616,-0.00004424,-0.00028827,-0.0
 0013593,0.08827332,0.06349922,-0.00008048,-0.00003918,-0.00016382,0.00
 005150,0.00000660,0.00004141,-0.00005429,-0.00002563,0.00007446,-0.000
 23331,-0.00060741,-0.00023987,0.00101097,0.00056734,-0.00012919,0.1927
 7200,0.07758274,-0.32607507,0.00029324,0.00071876,-0.00003112,-0.00003
 355,0.00001197,0.00002933,-0.21576221,-0.09213306,0.35208051,-0.000052
 91,0.00017217,0.00009101,0.00000336,-0.00006720,-0.00001243,0.00002011
 ,-0.00003015,-0.00004798,-0.00020359,-0.00007285,0.00014809,-0.0002012
 7,0.00003024,-0.00019478,-0.05812885,-0.10544026,-0.09716835,0.0002228
 5,0.00014142,0.00014019,0.00010281,0.00002322,0.00001720,0.00523351,0.
 01543403,0.02260654,0.05246278,0.00012040,-0.00006436,0.00003852,-0.00
 006414,0.00000648,-0.00001742,-0.00002161,0.00001790,-0.00000322,0.000
 09189,-0.00022986,0.00069111,0.00018036,0.00011126,0.00007227,-0.09018
 511,-0.21828850,-0.24298500,-0.00034838,-0.00064921,-0.00127949,-0.000
 10582,-0.00021053,0.00017341,-0.00072468,0.00631556,0.01405448,0.09102
 394,0.21307886,0.00007597,0.00003594,-0.00009472,0.00001347,0.00001783
 ,0.00004706,-0.00000883,-0.00000898,0.00003557,0.00028668,0.00061943,-
 0.00069317,0.00012038,0.00011491,0.00007372,-0.06302291,-0.20231540,-0
 .28872433,-0.00015146,-0.00040899,0.00094105,0.00009879,0.00014803,0.0
 0000675,-0.01260003,-0.02744413,-0.02661394,0.07582634,0.22987018,0.31
 476431,0.00081186,-0.00078321,0.00012516,-0.00019078,0.00011253,-0.000
 25874,-0.00011111,0.00028500,0.00021012,0.00015545,0.00072396,-0.00000
 331,0.00034203,0.00054458,0.00042439,-0.00172672,0.00076413,0.00031114
 ,0.00008988,-0.00043432,0.00002883,-0.00015857,-0.00009773,0.00001270,
 0.00014406,-0.00008457,-0.00030450,0.00076867,-0.00008951,0.00022261,0
 .49359395,-0.00202758,-0.00668824,-0.00080317,-0.00005853,-0.00031938,
 -0.00063309,0.00008729,-0.00068309,0.00065452,0.00072077,-0.00013181,0
 .00000753,0.00065203,0.00029868,-0.00067466,-0.00040042,0.00096087,-0.
 00004798,-0.00013883,-0.00032206,0.00006306,-0.00008542,0.00008550,0.0
 0000589,0.00017260,-0.00015243,-0.00001039,0.00045890,-0.00031975,0.00
 008124,0.10810912,0.63417502,0.00000035,-0.00104252,0.00203314,-0.0001
 1552,-0.00073038,-0.00058292,0.00000077,0.00063652,-0.00034991,-0.0000
 9355,0.00009464,0.00048116,0.00093981,-0.00112249,-0.00026835,0.000095
 34,-0.00007268,0.00089067,0.00006996,-0.00003795,-0.00018750,0.0000334
 0,-0.00003435,-0.00010424,-0.00029313,0.00005566,-0.00023510,0.0003951
 6,0.00001523,-0.00036175,-0.08890213,0.07399178,0.03753162,-0.00027709
 ,0.00024747,-0.00020537,-0.00000070,-0.00002911,0.00004077,0.00005080,
 -0.00031645,0.00030078,0.00001984,-0.00004955,0.00012857,-0.07434883,0
 .12106827,-0.10384520,0.00005558,-0.00002676,0.00035910,0.00002168,0.0
 0006928,-0.00002199,0.00004204,0.00000278,-0.00004080,-0.00023352,0.00
 003121,-0.00038046,0.00002612,-0.00006956,-0.00006924,-0.00038781,-0.0
 0013599,-0.00053647,0.08068205,0.00017195,-0.00010415,-0.00035121,-0.0
 0001382,0.00000246,0.00005260,-0.00020836,-0.00001727,0.00026776,-0.00
 005582,0.00006745,-0.00025259,0.12123968,-0.20962532,0.17834135,0.0001
 1665,-0.00041590,-0.00005738,0.00002463,0.00008599,0.00008961,-0.00001
 567,-0.00001130,0.00000361,-0.00011483,0.00030644,-0.00005533,-0.00009
 466,0.00001539,-0.00005552,-0.00010402,-0.00051094,0.00044990,-0.13349
 687,0.22958869,0.00001004,-0.00018140,0.00017276,0.00000473,0.00000111
 ,-0.00001707,0.00009076,0.00015925,-0.00008132,-0.00003236,0.00004958,
 -0.00008250,-0.13154123,0.22522724,-0.28320768,0.00024876,-0.00017472,
 0.00016106,0.00000710,0.00007758,-0.00001354,-0.00003400,-0.00001003,-
 0.00005868,-0.00020618,0.00005472,-0.00009446,-0.00007777,-0.00002068,
 -0.00003048,-0.00016553,0.00006460,0.00071412,0.12086799,-0.20693695,0
 .27119853,0.00014012,-0.00010814,-0.00039184,0.00001898,-0.00005146,0.
 00008724,-0.00029583,0.00008772,0.00031224,-0.00053336,-0.00011862,0.0
 0046593,-0.10480695,0.17022948,0.09248915,-0.00032848,0.00027809,0.000
 12246,0.00005660,0.00000303,-0.00037649,0.00014278,0.00007640,-0.00003
 888,0.00015119,-0.00038170,-0.00023527,-0.00001023,-0.00003104,-0.0000
 4573,0.00001824,-0.00006525,-0.00011208,-0.00673867,0.01257509,0.01173
 079,0.11133866,0.00009878,-0.00035168,0.00009268,-0.00008516,0.0000322
 2,0.00003980,-0.00009961,0.00025061,0.00000101,-0.00007869,-0.00062405
 ,-0.00037860,0.17015990,-0.28826258,-0.15399116,0.00013524,-0.00000942
 ,0.00042507,0.00004643,0.00028002,-0.00008029,0.00003688,0.00006710,0.
 00028833,-0.00020318,-0.00014069,-0.00034787,-0.00001912,-0.00000578,-
 0.00005779,-0.00009745,0.00007066,0.00023042,0.01280259,-0.02069571,-0
 .01993189,-0.18277448,0.30858824,-0.00028595,0.00023854,0.00006078,0.0
 0009594,0.00000157,-0.00002608,0.00017236,-0.00009274,0.00000251,0.000
 05766,0.00006670,0.00103634,0.12033810,-0.20077005,-0.17369845,-0.0001
 1116,0.00029148,0.00006754,-0.00010163,-0.00017981,-0.00020349,0.00002
 244,0.00013415,-0.00016671,-0.00001593,-0.00023887,-0.00004260,-0.0000
 1539,-0.00000245,-0.00001364,0.00005337,-0.00002651,-0.00016007,-0.017
 02088,0.02859502,0.01267082,-0.10448339,0.17420088,0.16115381,0.000147
 35,-0.00063317,0.00002479,0.00010121,-0.00009685,-0.00008201,0.0001299
 0,-0.00004877,0.00003838,-0.00015834,-0.00008507,-0.00002677,-0.000198
 83,-0.00005855,0.00005597,0.00045207,-0.00072977,-0.00011834,0.0000253
 3,0.00018617,-0.00001395,0.00000127,0.00001335,-0.00000904,-0.00014984
 ,0.00011316,0.00010026,-0.00049984,0.00027141,-0.00008826,-0.05193834,
 0.07373284,0.02212490,0.00011840,0.00006490,0.00001477,0.00002707,-0.0
 0000130,0.00003752,0.04802324,-0.00037692,0.00015336,0.00001179,0.0000
 3434,-0.00023440,-0.00011233,0.00005457,-0.00027271,0.00001985,-0.0000
 9880,0.00008210,0.00000739,-0.00015874,0.00010247,0.00014940,-0.000261
 82,-0.00009758,0.00008608,0.00004305,-0.00000412,-0.00001364,0.0000151
 4,-0.00002366,-0.00000211,-0.00000840,0.00006060,-0.00002307,0.0001095
 1,0.00010608,-0.00002598,0.02098255,-0.50021900,-0.08230196,0.00008178
 ,0.00002241,-0.00011156,0.00000943,-0.00001943,0.00000606,-0.03016789,
 0.51760969,0.00004736,0.00014200,0.00067809,-0.00002418,-0.00016994,0.
 00002539,0.00004441,0.00015267,0.00002555,-0.00000219,-0.00003255,-0.0
 0010847,-0.00003171,0.00021729,-0.00007680,-0.00006060,0.00011455,-0.0
 0037635,-0.00001777,0.00000248,0.00005957,0.00000331,0.00001114,0.0000
 4211,0.00013639,-0.00010209,0.00009981,-0.00016490,0.00002929,0.000210
 75,0.01386717,-0.09400971,-0.02025277,0.00006490,-0.00026906,-0.000114
 92,0.00005075,-0.00001793,-0.00002693,-0.01456759,0.08715355,0.0189670
 5,-0.00199167,-0.00056050,-0.00036628,0.00022964,-0.00038989,0.0001469
 4,0.00022772,-0.00081931,-0.00018776,0.00009357,-0.00013607,-0.0000356
 2,0.00007082,-0.00012829,-0.00016458,-0.00001747,0.00002497,-0.0000162
 1,-0.00003662,0.00001091,0.00001957,0.00002202,0.00004350,0.00001094,-
 0.00002671,0.00001833,-0.00000467,-0.00004171,0.00000713,0.00003278,-0
 .43285774,-0.18701347,0.06438466,0.00001517,0.00004407,0.00008463,0.00
 001229,0.00002965,-0.00001007,0.00312156,0.00978195,0.00080228,0.43378
 119,-0.00116215,0.00153976,0.00094775,0.00011327,-0.00049180,0.0005369
 1,-0.00016187,0.00015775,-0.00072596,-0.00042926,-0.00032320,0.0000254
 1,-0.00025336,-0.00052961,0.00007063,0.00050053,-0.00036602,-0.0000488
 3,0.00001108,0.00026445,-0.00004167,0.00018413,-0.00000164,0.00001655,
 -0.00004145,0.00006443,0.00006746,-0.00023048,0.00007551,-0.00005049,-
 0.13651461,-0.11422030,0.01257734,0.00002405,0.00025769,0.00008497,0.0
 0008446,0.00007327,-0.00009132,-0.04342569,-0.01692090,0.00689625,0.17
 839554,0.12846327,-0.00042927,0.00080305,-0.00329648,-0.00018747,0.001
 40365,0.00074633,0.00027178,-0.00136178,0.00019267,0.00003267,-0.00005
 388,-0.00018564,-0.00046374,0.00008225,0.00002251,0.00000928,-0.000007
 08,-0.00004213,-0.00002725,0.00002113,0.00005219,-0.00000871,0.0000223
 7,0.00005887,-0.00001209,0.00003578,0.00005045,0.00002799,-0.00003403,
 0.00004899,0.07250451,0.02366093,-0.01557614,0.00032516,0.00002133,-0.
 00013527,0.00002432,-0.00007839,0.00002077,-0.00757280,-0.00476760,0.0
 0059575,-0.06564660,-0.01971108,0.01604594,-0.00536520,-0.00271464,-0.
 00008626,0.00014450,-0.00006385,0.00068762,-0.00077846,-0.00034697,-0.
 00035767,-0.00797677,0.00537151,-0.00289451,-0.00345960,0.00079256,0.0
 0099738,-0.00552055,-0.00270182,0.00023512,-0.00243779,0.00273486,-0.0
 0168391,0.00079384,-0.00003795,0.00021097,-0.00099696,-0.00041993,0.00
 025422,0.00029817,-0.00005528,-0.00069058,-0.00855306,0.00599193,0.002
 00855,0.00095494,-0.00013293,-0.00100251,0.00080759,0.00004954,0.00126
 701,0.00079782,-0.00003974,-0.00014763,-0.00260206,0.00290583,0.001152
 23,0.03389359,0.00003825,-0.00401234,0.00003158,-0.00135464,0.00016792
 ,0.00048689,-0.00118898,0.00046178,-0.00022414,0.00607385,-0.01118961,
 0.00399678,0.00072934,-0.00421135,-0.00055768,-0.00004600,-0.00412357,
 -0.00009285,0.00060243,0.00203723,-0.00000520,0.00078999,-0.00031564,0
 .00014673,-0.00109653,0.00060736,0.00023260,-0.00143872,0.00004093,-0.
 00052027,0.00668356,-0.01202375,-0.00270917,-0.00020313,0.00103407,0.0
 0164819,0.00018701,0.00074723,-0.00213264,0.00086522,-0.00034490,-0.00
 011796,0.00069146,0.00195733,-0.00003664,-0.01133311,0.02916730,0.0003
 9552,0.00061144,-0.00417909,0.00174279,0.00069647,0.00044368,-0.001824
 55,-0.00088922,0.00119470,-0.00265460,0.00336670,-0.00450954,0.0007251
 8,-0.00079443,-0.01548738,-0.00056739,-0.00089332,-0.00412627,-0.00134
 571,0.00072140,0.00115386,-0.00015996,0.00015206,0.00021878,0.00186938
 ,0.00096853,0.00124921,-0.00157091,-0.00060221,0.00040384,0.00187421,-
 0.00232404,-0.00357197,0.00003313,0.00015687,-0.00108137,0.00040081,-0
 .00039426,-0.00067460,0.00008216,-0.00007586,0.00025217,0.00094999,-0.
 00055391,0.00140119,0.00004996,-0.00014622,0.02731279\\-0.00000081,0.0
 0000190,0.00000039,-0.00000046,0.00000059,0.00000031,-0.00000083,0.000
 00085,0.00000016,-0.00000134,-0.00000111,-0.00000084,0.00000017,-0.000
 00005,-0.00000048,0.00000099,-0.00000154,-0.00000054,-0.00000040,-0.00
 000061,-0.00000056,-0.00000070,-0.00000047,-0.00000051,-0.00000015,-0.
 00000083,-0.00000019,0.00000058,-0.00000081,-0.00000058,0.00000141,0.0
 0000114,0.00000067,0.00000089,-0.00000050,0.00000019,0.00000004,0.0000
 0015,0.00000069,0.00000063,0.00000052,0.00000053,0.00000015,0.00000070
 ,0.00000057,-0.00000016,0.00000007,0.00000017\\\@


 IT IS A SIMPLE TASK TO MAKE THINGS COMPLEX,
 BUT A COMPLEX TASK TO MAKE THEM SIMPLE.
 Job cpu time:       0 days  1 hours  5 minutes  0.3 seconds.
 Elapsed time:       0 days  0 hours  1 minutes 39.0 seconds.
 File lengths (MBytes):  RWF=     88 Int=      0 D2E=      0 Chk=      6 Scr=      1
 Normal termination of Gaussian 16 at Tue Jul 19 12:14:10 2022.
