 Entering Gaussian System, Link 0=g16
 Initial command:
 /share/sw/gaussian/g16_B.01_avx2-enabled/g16/l1.exe "/scratch/hnr2/2615638/Gau-13826.inp" -scrdir="/scratch/hnr2/2615638/"
 Entering Link 1 = /share/sw/gaussian/g16_B.01_avx2-enabled/g16/l1.exe PID=     13828.
  
 Copyright (c) 1988-2017, Gaussian, Inc.  All Rights Reserved.
  
 This is part of the Gaussian(R) 16 program.  It is based on
 the Gaussian(R) 09 system (copyright 2009, Gaussian, Inc.),
 the Gaussian(R) 03 system (copyright 2003, Gaussian, Inc.),
 the Gaussian(R) 98 system (copyright 1998, Gaussian, Inc.),
 the Gaussian(R) 94 system (copyright 1995, Gaussian, Inc.),
 the Gaussian 92(TM) system (copyright 1992, Gaussian, Inc.),
 the Gaussian 90(TM) system (copyright 1990, Gaussian, Inc.),
 the Gaussian 88(TM) system (copyright 1988, Gaussian, Inc.),
 the Gaussian 86(TM) system (copyright 1986, Carnegie Mellon
 University), and the Gaussian 82(TM) system (copyright 1983,
 Carnegie Mellon University). Gaussian is a federally registered
 trademark of Gaussian, Inc.
  
 This software contains proprietary and confidential information,
 including trade secrets, belonging to Gaussian, Inc.
  
 This software is provided under written license and may be
 used, copied, transmitted, or stored only in accord with that
 written license.
  
 The following legend is applicable only to US Government
 contracts under FAR:
  
                    RESTRICTED RIGHTS LEGEND
  
 Use, reproduction and disclosure by the US Government is
 subject to restrictions as set forth in subparagraphs (a)
 and (c) of the Commercial Computer Software - Restricted
 Rights clause in FAR 52.227-19.
  
 Gaussian, Inc.
 340 Quinnipiac St., Bldg. 40, Wallingford CT 06492
  
  
 ---------------------------------------------------------------
 Warning -- This program may not be used in any manner that
 competes with the business of Gaussian, Inc. or will provide
 assistance to any competitor of Gaussian, Inc.  The licensee
 of this program is prohibited from giving any competitor of
 Gaussian, Inc. access to this program.  By using this program,
 the user acknowledges that Gaussian, Inc. is engaged in the
 business of creating and licensing software in the field of
 computational chemistry and represents and warrants to the
 licensee that it is not a competitor of Gaussian, Inc. and that
 it will not use this program in any manner prohibited above.
 ---------------------------------------------------------------
  

 Cite this work as:
 Gaussian 16, Revision B.01,
 M. J. Frisch, G. W. Trucks, H. B. Schlegel, G. E. Scuseria, 
 M. A. Robb, J. R. Cheeseman, G. Scalmani, V. Barone, 
 G. A. Petersson, H. Nakatsuji, X. Li, M. Caricato, A. V. Marenich, 
 J. Bloino, B. G. Janesko, R. Gomperts, B. Mennucci, H. P. Hratchian, 
 J. V. Ortiz, A. F. Izmaylov, J. L. Sonnenberg, D. Williams-Young, 
 F. Ding, F. Lipparini, F. Egidi, J. Goings, B. Peng, A. Petrone, 
 T. Henderson, D. Ranasinghe, V. G. Zakrzewski, J. Gao, N. Rega, 
 G. Zheng, W. Liang, M. Hada, M. Ehara, K. Toyota, R. Fukuda, 
 J. Hasegawa, M. Ishida, T. Nakajima, Y. Honda, O. Kitao, H. Nakai, 
 T. Vreven, K. Throssell, J. A. Montgomery, Jr., J. E. Peralta, 
 F. Ogliaro, M. J. Bearpark, J. J. Heyd, E. N. Brothers, K. N. Kudin, 
 V. N. Staroverov, T. A. Keith, R. Kobayashi, J. Normand, 
 K. Raghavachari, A. P. Rendell, J. C. Burant, S. S. Iyengar, 
 J. Tomasi, M. Cossi, J. M. Millam, M. Klene, C. Adamo, R. Cammi, 
 J. W. Ochterski, R. L. Martin, K. Morokuma, O. Farkas, 
 J. B. Foresman, and D. J. Fox, Gaussian, Inc., Wallingford CT, 2016.
 
 ******************************************
 Gaussian 16:  ES64L-G16RevB.01 20-Dec-2017
                18-Jul-2022 
 ******************************************
 %nprocshared=40
 Will use up to   40 processors via shared memory.
 %mem=60GB
 %chk=sim001_type3_coord-5_0-5-0_10C_b1_id81779_step4600.chk
 ----------------------------------------------------------------------
 # opt=(calcall,maxcycles=500,maxstep=10,cartesian) freq iop(1/152=500,
 1/8=10) scf=(maxcycle=500) int(Acc2E=11,grid=ultrafine) rb3lyp/aug-cc-
 pvdz empiricaldispersion=gd3
 ----------------------------------------------------------------------
 1/6=500,8=10,10=4,18=10,26=4,38=1,152=500/1,3;
 2/12=2,17=6,18=5,29=2,40=1/2;
 3/5=16,7=10,11=2,25=1,27=11,30=1,71=2,74=-5,75=-5,116=1,124=31,140=1/1,2,3;
 4//1;
 5/5=2,7=500,38=5,87=11/2;
 8/6=4,10=90,11=11,87=11/1;
 11/6=1,8=1,9=11,15=111,16=1,87=11/1,2,10;
 10/6=1,87=11/2;
 6/7=2,8=2,9=2,10=2,18=1,28=1,87=11/1;
 7/7=1,10=1,25=1,87=11/1,2,3,16;
 1/6=500,8=10,10=4,18=10,26=4,152=500/3(3);
 2/29=1/2;
 7/7=1,8=1,9=1,25=1,44=-1,87=11/16;
 99/12=1/99;
 2/29=1/2;
 3/5=16,7=10,11=2,25=1,27=11,30=1,71=2,74=-5,75=-5,116=1,124=31,140=1/1,2,3;
 4/5=5,16=3,69=1/1;
 5/5=2,7=500,38=5,87=11/2;
 8/6=4,10=90,11=11,87=11/1;
 11/6=1,8=1,9=11,15=111,16=1,87=11/1,2,10;
 10/6=1,87=11/2;
 7/7=1,10=1,25=1,87=11/1,2,3,16;
 1/6=500,8=10,10=4,18=10,26=4,152=500/3(-8);
 2/29=1/2;
 6/7=2,8=2,9=2,10=2,18=1,19=2,28=1,87=11/1;
 7/7=1,8=1,9=1,25=1,44=-1,87=11/16;
 99/12=1/99;
 -----------------------------------------------------------
 MD frame sim001_type3_coord-5_0-5-0_10C_b1_id81779_step4600
 -----------------------------------------------------------
 Symbolic Z-matrix:
 Charge =  1 Multiplicity = 1
 O                    -1.46536   0.6841   -1.73514 
 H                    -1.40356   0.2113   -2.56484 
 H                     1.748     0.4279   -2.83618 
 H                    -2.23406   1.2453   -1.83544 
 H                     2.08     -0.14595   2.16856 
 H                     1.28801  -1.42894   2.04196 
 H                    -1.788     1.71151   1.79046 
 O                    -0.914     1.32451   1.74525 
 O                     1.70601  -0.74395   1.52156 
 O                     1.576     0.6778   -1.92818 
 H                     0.95801   1.406    -1.99318 
 H                    -0.78999   0.9115    2.59965 
 O                    -1.42116  -1.9909    0.22018 
 H                    -0.78356  -2.4374   -0.33657 
 H                    -2.24186  -2.0377   -0.26981 
 Na                    0.        0.        0. 
 

 GradGradGradGradGradGradGradGradGradGradGradGradGradGradGradGradGradGrad
 Berny optimization.
 Initialization pass.
 No Z-matrix variables, so optimization will use Cartesian coordinates.
 Trust Radius=1.00D-01 FncErr=1.00D-07 GrdErr=1.00D-06 EigMax=2.50D+02 EigMin=1.00D-04
 Number of steps in this run=    500 maximum allowed number of steps=    500.
 GradGradGradGradGradGradGradGradGradGradGradGradGradGradGradGradGradGrad

 ---------------------------------------------------------------------------------------------------
                            Z-MATRIX (ANGSTROMS AND DEGREES)
   CD    Cent   Atom    N1       Length/X        N2       Alpha/Y        N3        Beta/Z          J
 ---------------------------------------------------------------------------------------------------
      1      1  O        0  -1.465360          0.684100         -1.735140
      2      2  H        0  -1.403560          0.211300         -2.564840
      3      3  H        0   1.748000          0.427900         -2.836180
      4      4  H        0  -2.234060          1.245300         -1.835440
      5      5  H        0   2.080000         -0.145950          2.168560
      6      6  H        0   1.288010         -1.428940          2.041960
      7      7  H        0  -1.788000          1.711510          1.790460
      8      8  O        0  -0.914000          1.324510          1.745250
      9      9  O        0   1.706010         -0.743950          1.521560
     10     10  O        0   1.576000          0.677800         -1.928180
     11     11  H        0   0.958010          1.406000         -1.993180
     12     12  H        0  -0.789990          0.911500          2.599650
     13     13  O        0  -1.421160         -1.990900          0.220180
     14     14  H        0  -0.783560         -2.437400         -0.336570
     15     15  H        0  -2.241860         -2.037700         -0.269810
     16     16  Na       0   0.000000          0.000000          0.000000
 ---------------------------------------------------------------------------------------------------
                         Z-Matrix orientation:                         
 ---------------------------------------------------------------------
 Center     Atomic      Atomic             Coordinates (Angstroms)
 Number     Number       Type             X           Y           Z
 ---------------------------------------------------------------------
      1          8           0       -1.465360    0.684100   -1.735140
      2          1           0       -1.403560    0.211300   -2.564840
      3          1           0        1.748000    0.427900   -2.836180
      4          1           0       -2.234060    1.245300   -1.835440
      5          1           0        2.080000   -0.145950    2.168560
      6          1           0        1.288010   -1.428940    2.041960
      7          1           0       -1.788000    1.711510    1.790460
      8          8           0       -0.914000    1.324510    1.745250
      9          8           0        1.706010   -0.743950    1.521560
     10          8           0        1.576000    0.677800   -1.928180
     11          1           0        0.958010    1.406000   -1.993180
     12          1           0       -0.789990    0.911500    2.599650
     13          8           0       -1.421160   -1.990900    0.220180
     14          1           0       -0.783560   -2.437400   -0.336570
     15          1           0       -2.241860   -2.037700   -0.269810
     16         11           0        0.000000    0.000000    0.000000
 ---------------------------------------------------------------------
                    Distance matrix (angstroms):
                    1          2          3          4          5
     1  O    0.000000
     2  H    0.956954   0.000000
     3  H    3.406407   3.170626   0.000000
     4  H    0.957029   1.513575   4.186457   0.000000
     5  H    5.338299   5.887945   5.048460   6.048033   0.000000
     6  H    5.129568   5.581894   5.239818   5.881392   1.513056
     7  H    3.686397   4.622452   5.962948   3.682862   4.307498
     8  O    3.581513   4.478368   5.373979   3.817090   3.362362
     9  O    4.764768   5.223083   4.512748   5.545333   0.957121
    10  O    3.047487   3.082326   0.957339   3.853208   4.209021
    11  H    2.541741   2.707603   1.513741   3.200003   4.581211
    12  H    4.392976   5.247733   6.018597   4.676193   3.088832
    13  O    3.313737   3.550540   5.023495   3.919103   4.411139
    14  H    3.487780   3.516418   4.568018   4.232356   4.441441
    15  H    3.187215   3.320830   5.346440   3.637217   5.310635
    16  Na   2.371916   2.931387   3.358946   3.148116   3.008381
                    6          7          8          9         10
     6  H    0.000000
     7  H    4.403126   0.000000
     8  O    3.538131   0.956916   0.000000
     9  O    0.956426   4.278983   3.345597   0.000000
    10  O    4.503699   5.119896   4.484687   3.733495   0.000000
    11  H    4.942483   4.685066   4.181737   4.187504   0.957294
    12  H    3.179113   1.513548   0.957055   3.183207   5.114076
    13  O    3.312746   4.038340   3.684426   3.609386   4.551964
    14  H    3.311465   4.769341   4.301506   3.538132   4.219623
    15  H    4.263197   4.302008   4.138615   4.524210   4.969928
    16  Na   2.805430   3.054825   2.373946   2.403971   2.580904
                   11         12         13         14         15
    11  H    0.000000
    12  H    4.939041   0.000000
    13  O    4.700887   3.805809   0.000000
    14  H    4.533117   4.453825   0.957009   0.000000
    15  H    5.006820   4.363428   0.956990   1.513557   0.000000
    16  Na   2.620570   2.865850   2.455984   2.582279   3.041538
                   16
    16  Na   0.000000
 Stoichiometry    H10NaO5(1+)
 Framework group  C1[X(H10NaO5)]
 Deg. of freedom    42
 Full point group                 C1      NOp   1
 Largest Abelian subgroup         C1      NOp   1
 Largest concise Abelian subgroup C1      NOp   1
                         Standard orientation:                         
 ---------------------------------------------------------------------
 Center     Atomic      Atomic             Coordinates (Angstroms)
 Number     Number       Type             X           Y           Z
 ---------------------------------------------------------------------
      1          8           0       -1.952847   -1.096170    0.369986
      2          1           0       -2.626453   -1.030358   -0.306538
      3          1           0       -2.581852    2.133258   -0.512487
      4          1           0       -2.276402   -1.771562    0.965857
      5          1           0        2.412709    1.971767    0.205309
      6          1           0        2.519320    1.027652   -0.972239
      7          1           0        1.146473   -1.567053    2.309576
      8          8           0        1.298794   -0.752277    1.831426
      9          8           0        1.896248    1.575361   -0.496269
     10          8           0       -1.790124    1.922214   -0.017385
     11          1           0       -2.104021    1.415187    0.731484
     12          1           0        2.237395   -0.755704    1.644423
     13          8           0        0.597554   -1.573132   -1.691279
     14          1           0        0.245636   -0.957666   -2.334103
     15          1           0        0.044254   -2.349504   -1.774560
     16         11           0        0.053268    0.116002    0.006494
 ---------------------------------------------------------------------
 Rotational constants (GHZ):           1.5926430           1.3667762           1.1567640
 Standard basis: Aug-CC-pVDZ (5D, 7F)
 There are   244 symmetry adapted cartesian basis functions of A   symmetry.
 There are   232 symmetry adapted basis functions of A   symmetry.
   232 basis functions,   406 primitive gaussians,   244 cartesian basis functions
    30 alpha electrons       30 beta electrons
       nuclear repulsion energy       298.8731779913 Hartrees.
 NAtoms=   16 NActive=   16 NUniq=   16 SFac= 1.00D+00 NAtFMM=   60 NAOKFM=F Big=F
 Integral buffers will be    131072 words long.
 Raffenetti 2 integral format.
 Two-electron integral symmetry is turned on.
 Nuclear repulsion after empirical dispersion term =      298.8647144821 Hartrees.
 One-electron integrals computed using PRISM.
 NBasis=   232 RedAO= T EigKep=  2.50D-04  NBF=   232
 NBsUse=   232 1.00D-06 EigRej= -1.00D+00 NBFU=   232
 ExpMin= 6.16D-03 ExpMax= 3.17D+04 ExpMxC= 1.08D+03 IAcc=3 IRadAn=         5 AccDes= 0.00D+00
 Harris functional with IExCor=  402 and IRadAn=       5 diagonalized for initial guess.
 HarFok:  IExCor=  402 AccDes= 0.00D+00 IRadAn=         5 IDoV= 1 UseB2=F ITyADJ=14
 ICtDFT=  3500011 ScaDFX=  1.000000  1.000000  1.000000  1.000000
 FoFCou: FMM=F IPFlag=           0 FMFlag=      100000 FMFlg1=           0
         NFxFlg=           0 DoJE=T BraDBF=F KetDBF=T FulRan=T
         wScrn=  0.000000 ICntrl=       500 IOpCl=  0 I1Cent=   200000004 NGrid=           0
         NMat0=    1 NMatS0=      1 NMatT0=    0 NMatD0=    1 NMtDS0=    0 NMtDT0=    0
 Petite list used in FoFCou.
 Requested convergence on RMS density matrix=1.00D-08 within 500 cycles.
 Requested convergence on MAX density matrix=1.00D-06.
 Requested convergence on             energy=1.00D-06.
 No special actions if energy rises.
 SCF Done:  E(RB3LYP) =  -544.439911176     A.U. after   10 cycles
            NFock= 10  Conv=0.69D-08     -V/T= 2.0055
 DoSCS=F DFT=T ScalE2(SS,OS)=  1.000000  1.000000
 Range of M.O.s used for correlation:     1   232
 NBasis=   232 NAE=    30 NBE=    30 NFC=     0 NFV=     0
 NROrb=    232 NOA=    30 NOB=    30 NVA=   202 NVB=   202

 **** Warning!!: The largest alpha MO coefficient is  0.16232082D+02

 Symmetrizing basis deriv contribution to polar:
 IMax=3 JMax=2 DiffMx= 0.00D+00
 G2DrvN: will do    17 centers at a time, making    1 passes.
 Calling FoFCou, ICntrl=  3107 FMM=F I1Cent=   0 AccDes= 1.00D-11.
 End of G2Drv F.D. properties file   721 does not exist.
 End of G2Drv F.D. properties file   722 does not exist.
 End of G2Drv F.D. properties file   788 does not exist.
          IDoAtm=1111111111111111
          Differentiating once with respect to electric field.
                with respect to dipole field.
          Differentiating once with respect to nuclear coordinates.
 Keep R1 ints in memory in canonical form, NReq=408195286.
          There are    51 degrees of freedom in the 1st order CPHF.  IDoFFX=6 NUNeed=     3.
     48 vectors produced by pass  0 Test12= 1.19D-14 1.96D-09 XBig12= 2.26D+01 1.13D+00.
 AX will form    48 AO Fock derivatives at one time.
     48 vectors produced by pass  1 Test12= 1.19D-14 1.96D-09 XBig12= 2.87D+00 2.01D-01.
     48 vectors produced by pass  2 Test12= 1.19D-14 1.96D-09 XBig12= 3.52D-02 2.34D-02.
     48 vectors produced by pass  3 Test12= 1.19D-14 1.96D-09 XBig12= 7.41D-05 9.34D-04.
     48 vectors produced by pass  4 Test12= 1.19D-14 1.96D-09 XBig12= 9.10D-08 3.26D-05.
     25 vectors produced by pass  5 Test12= 1.19D-14 1.96D-09 XBig12= 6.85D-11 1.06D-06.
      3 vectors produced by pass  6 Test12= 1.19D-14 1.96D-09 XBig12= 5.22D-14 2.31D-08.
 InvSVY:  IOpt=1 It=  1 EMax= 4.44D-15
 Solved reduced A of dimension   268 with    51 vectors.
 Isotropic polarizability for W=    0.000000       46.75 Bohr**3.
 End of Minotr F.D. properties file   721 does not exist.
 End of Minotr F.D. properties file   722 does not exist.
 End of Minotr F.D. properties file   788 does not exist.

 **********************************************************************

            Population analysis using the SCF Density.

 **********************************************************************

 Orbital symmetries:
       Occupied  (A) (A) (A) (A) (A) (A) (A) (A) (A) (A) (A) (A)
                 (A) (A) (A) (A) (A) (A) (A) (A) (A) (A) (A) (A)
                 (A) (A) (A) (A) (A) (A)
       Virtual   (A) (A) (A) (A) (A) (A) (A) (A) (A) (A) (A) (A)
                 (A) (A) (A) (A) (A) (A) (A) (A) (A) (A) (A) (A)
                 (A) (A) (A) (A) (A) (A) (A) (A) (A) (A) (A) (A)
                 (A) (A) (A) (A) (A) (A) (A) (A) (A) (A) (A) (A)
                 (A) (A) (A) (A) (A) (A) (A) (A) (A) (A) (A) (A)
                 (A) (A) (A) (A) (A) (A) (A) (A) (A) (A) (A) (A)
                 (A) (A) (A) (A) (A) (A) (A) (A) (A) (A) (A) (A)
                 (A) (A) (A) (A) (A) (A) (A) (A) (A) (A) (A) (A)
                 (A) (A) (A) (A) (A) (A) (A) (A) (A) (A) (A) (A)
                 (A) (A) (A) (A) (A) (A) (A) (A) (A) (A) (A) (A)
                 (A) (A) (A) (A) (A) (A) (A) (A) (A) (A) (A) (A)
                 (A) (A) (A) (A) (A) (A) (A) (A) (A) (A) (A) (A)
                 (A) (A) (A) (A) (A) (A) (A) (A) (A) (A) (A) (A)
                 (A) (A) (A) (A) (A) (A) (A) (A) (A) (A) (A) (A)
                 (A) (A) (A) (A) (A) (A) (A) (A) (A) (A) (A) (A)
                 (A) (A) (A) (A) (A) (A) (A) (A) (A) (A) (A) (A)
                 (A) (A) (A) (A) (A) (A) (A) (A) (A) (A)
 The electronic state is 1-A.
 Alpha  occ. eigenvalues --  -38.60373 -19.33332 -19.31969 -19.31749 -19.31447
 Alpha  occ. eigenvalues --  -19.30427  -2.33830  -1.27220  -1.27099  -1.26983
 Alpha  occ. eigenvalues --   -1.20061  -1.18663  -1.18430  -1.18099  -1.17093
 Alpha  occ. eigenvalues --   -0.71567  -0.70224  -0.69959  -0.69500  -0.68712
 Alpha  occ. eigenvalues --   -0.59032  -0.57110  -0.56500  -0.56369  -0.54951
 Alpha  occ. eigenvalues --   -0.50572  -0.48817  -0.48420  -0.48221  -0.46989
 Alpha virt. eigenvalues --   -0.17876  -0.14995  -0.13805  -0.12827  -0.10853
 Alpha virt. eigenvalues --   -0.09363  -0.08518  -0.08054  -0.07334  -0.06623
 Alpha virt. eigenvalues --   -0.06134  -0.05553  -0.05398  -0.05031  -0.04417
 Alpha virt. eigenvalues --   -0.04199  -0.03662  -0.03448  -0.00953  -0.00556
 Alpha virt. eigenvalues --    0.00027   0.00531   0.00729   0.00832   0.01137
 Alpha virt. eigenvalues --    0.01699   0.02322   0.02508   0.02830   0.03665
 Alpha virt. eigenvalues --    0.03716   0.04047   0.04447   0.05080   0.05227
 Alpha virt. eigenvalues --    0.06353   0.06589   0.06971   0.07876   0.08127
 Alpha virt. eigenvalues --    0.08262   0.09333   0.09437   0.10612   0.12130
 Alpha virt. eigenvalues --    0.12914   0.13538   0.14629   0.15733   0.16170
 Alpha virt. eigenvalues --    0.16427   0.17153   0.18787   0.19686   0.20276
 Alpha virt. eigenvalues --    0.21352   0.21755   0.22667   0.23429   0.23794
 Alpha virt. eigenvalues --    0.25161   0.26828   0.27191   0.28727   0.30210
 Alpha virt. eigenvalues --    0.30887   0.31690   0.31959   0.32347   0.32872
 Alpha virt. eigenvalues --    0.33789   0.34551   0.35113   0.35447   0.36146
 Alpha virt. eigenvalues --    0.37035   0.38120   0.38682   0.38954   0.39647
 Alpha virt. eigenvalues --    0.40970   0.42140   0.43197   0.43287   0.44040
 Alpha virt. eigenvalues --    0.44489   0.44999   0.46583   0.46911   0.48441
 Alpha virt. eigenvalues --    0.49185   0.55478   0.57779   0.59684   0.60860
 Alpha virt. eigenvalues --    0.61661   0.64538   0.66831   0.67623   0.72441
 Alpha virt. eigenvalues --    0.72699   0.79179   0.80567   0.81761   0.82699
 Alpha virt. eigenvalues --    0.83724   0.84104   0.85635   0.86351   0.86853
 Alpha virt. eigenvalues --    0.89777   0.91293   0.92205   0.93325   0.97449
 Alpha virt. eigenvalues --    0.98985   1.00326   1.02096   1.03842   1.05554
 Alpha virt. eigenvalues --    1.08034   1.08726   1.10467   1.14455   1.15452
 Alpha virt. eigenvalues --    1.17097   1.21810   1.22732   1.24807   1.28865
 Alpha virt. eigenvalues --    1.29448   1.31723   1.38346   1.42779   1.43817
 Alpha virt. eigenvalues --    1.51149   1.59226   1.62978   1.64222   1.64990
 Alpha virt. eigenvalues --    1.65846   1.65936   1.71455   1.72539   1.74405
 Alpha virt. eigenvalues --    1.76005   1.76503   1.78257   1.81919   1.84179
 Alpha virt. eigenvalues --    1.84991   1.95980   1.97903   2.00757   2.01327
 Alpha virt. eigenvalues --    2.02805   2.03478   2.03724   2.04448   2.04902
 Alpha virt. eigenvalues --    2.06434   2.13494   2.17657   2.18471   2.20223
 Alpha virt. eigenvalues --    2.21377   2.26326   2.33162   2.33526   2.35903
 Alpha virt. eigenvalues --    2.38428   2.42623   2.59139   2.61334   2.63390
 Alpha virt. eigenvalues --    2.65366   2.72127   3.15258   3.16406   3.17411
 Alpha virt. eigenvalues --    3.17914   3.18630   3.19292   3.20377   3.21033
 Alpha virt. eigenvalues --    3.22210   3.22737   3.24072   3.26386   3.28282
 Alpha virt. eigenvalues --    3.29229   3.31581   3.51150   3.53444   3.54137
 Alpha virt. eigenvalues --    3.55565   3.58060   3.75898   3.76616   3.78337
 Alpha virt. eigenvalues --    3.79428   3.82575
          Condensed to atoms (all electrons):
               1          2          3          4          5          6
     1  O    7.721123   0.341716  -0.000114   0.313458   0.000315   0.000530
     2  H    0.341716   0.616840   0.000257  -0.098309  -0.000099  -0.000347
     3  H   -0.000114   0.000257   0.608599   0.000387  -0.000063   0.000202
     4  H    0.313458  -0.098309   0.000387   0.600536   0.000036   0.000003
     5  H    0.000315  -0.000099  -0.000063   0.000036   0.603527  -0.093604
     6  H    0.000530  -0.000347   0.000202   0.000003  -0.093604   0.623952
     7  H    0.004322  -0.000919  -0.000054   0.001645  -0.000155   0.000390
     8  O    0.000280  -0.001046   0.000562   0.002345   0.002471  -0.004174
     9  O   -0.000053  -0.000159   0.000952   0.000383   0.330352   0.331752
    10  O   -0.008931   0.003916   0.359300   0.000677   0.000294  -0.000901
    11  H    0.004908  -0.000605  -0.098036   0.000464   0.000728   0.000116
    12  H    0.000079   0.000141   0.000101  -0.000428  -0.000754   0.001877
    13  O   -0.011062  -0.000109   0.000390   0.000923   0.000574   0.003385
    14  H   -0.001002   0.000643   0.000249  -0.000242  -0.000246  -0.000748
    15  H    0.009834  -0.001214   0.000146   0.000207   0.000248  -0.000821
    16  Na  -0.027879  -0.006308   0.005737   0.003886   0.005743  -0.012541
               7          8          9         10         11         12
     1  O    0.004322   0.000280  -0.000053  -0.008931   0.004908   0.000079
     2  H   -0.000919  -0.001046  -0.000159   0.003916  -0.000605   0.000141
     3  H   -0.000054   0.000562   0.000952   0.359300  -0.098036   0.000101
     4  H    0.001645   0.002345   0.000383   0.000677   0.000464  -0.000428
     5  H   -0.000155   0.002471   0.330352   0.000294   0.000728  -0.000754
     6  H    0.000390  -0.004174   0.331752  -0.000901   0.000116   0.001877
     7  H    0.606452   0.338706   0.002084   0.000134   0.000462  -0.104283
     8  O    0.338706   7.578345  -0.009703   0.003229   0.000268   0.353236
     9  O    0.002084  -0.009703   7.538092  -0.017282  -0.001956   0.004436
    10  O    0.000134   0.003229  -0.017282   7.467798   0.289484  -0.000514
    11  H    0.000462   0.000268  -0.001956   0.289484   0.655391  -0.000738
    12  H   -0.104283   0.353236   0.004436  -0.000514  -0.000738   0.618146
    13  O    0.000986   0.001083  -0.006640   0.000781   0.000721   0.000330
    14  H   -0.000239   0.003152  -0.000617   0.000568  -0.000644  -0.000815
    15  H    0.000945  -0.000370   0.000536   0.000375   0.000514  -0.000416
    16  Na  -0.004734  -0.008334   0.025253   0.042970   0.005947  -0.018327
              13         14         15         16
     1  O   -0.011062  -0.001002   0.009834  -0.027879
     2  H   -0.000109   0.000643  -0.001214  -0.006308
     3  H    0.000390   0.000249   0.000146   0.005737
     4  H    0.000923  -0.000242   0.000207   0.003886
     5  H    0.000574  -0.000246   0.000248   0.005743
     6  H    0.003385  -0.000748  -0.000821  -0.012541
     7  H    0.000986  -0.000239   0.000945  -0.004734
     8  O    0.001083   0.003152  -0.000370  -0.008334
     9  O   -0.006640  -0.000617   0.000536   0.025253
    10  O    0.000781   0.000568   0.000375   0.042970
    11  H    0.000721  -0.000644   0.000514   0.005947
    12  H    0.000330  -0.000815  -0.000416  -0.018327
    13  O    7.534863   0.309751   0.334653   0.006674
    14  H    0.309751   0.642925  -0.102592   0.013194
    15  H    0.334653  -0.102592   0.607388  -0.004290
    16  Na   0.006674   0.013194  -0.004290  10.328070
 Mulliken charges:
               1
     1  O   -0.347526
     2  H    0.145602
     3  H    0.121385
     4  H    0.174030
     5  H    0.150633
     6  H    0.150928
     7  H    0.154259
     8  O   -0.260048
     9  O   -0.197428
    10  O   -0.141898
    11  H    0.142975
    12  H    0.147930
    13  O   -0.177304
    14  H    0.136666
    15  H    0.154855
    16  Na   0.644940
 Sum of Mulliken charges =   1.00000
 Mulliken charges with hydrogens summed into heavy atoms:
               1
     1  O   -0.027894
     8  O    0.042141
     9  O    0.104134
    10  O    0.122462
    13  O    0.114217
    16  Na   0.644940
 APT charges:
               1
     1  O   -0.561830
     2  H    0.288372
     3  H    0.285757
     4  H    0.293843
     5  H    0.293882
     6  H    0.283099
     7  H    0.291912
     8  O   -0.553888
     9  O   -0.544125
    10  O   -0.547086
    11  H    0.282244
    12  H    0.287287
    13  O   -0.536167
    14  H    0.271212
    15  H    0.294094
    16  Na   0.871394
 Sum of APT charges =   1.00000
 APT charges with hydrogens summed into heavy atoms:
               1
     1  O    0.020385
     8  O    0.025311
     9  O    0.032856
    10  O    0.020915
    13  O    0.029139
    16  Na   0.871394
 Electronic spatial extent (au):  <R**2>=           1199.4117
 Charge=              1.0000 electrons
 Dipole moment (field-independent basis, Debye):
    X=             -1.5036    Y=             -3.0328    Z=              0.0635  Tot=              3.3857
 Quadrupole moment (field-independent basis, Debye-Ang):
   XX=             -6.0068   YY=            -26.4285   ZZ=            -25.0044
   XY=              4.5492   XZ=              4.8057   YZ=             -2.3169
 Traceless Quadrupole moment (field-independent basis, Debye-Ang):
   XX=             13.1397   YY=             -7.2819   ZZ=             -5.8578
   XY=              4.5492   XZ=              4.8057   YZ=             -2.3169
 Octapole moment (field-independent basis, Debye-Ang**2):
  XXX=             -9.6610  YYY=            -26.6513  ZZZ=             -5.9200  XYY=            -10.5262
  XXY=             10.6652  XXZ=              7.8230  XZZ=             -0.9926  YZZ=            -18.9140
  YYZ=              7.7909  XYZ=             -1.7112
 Hexadecapole moment (field-independent basis, Debye-Ang**3):
 XXXX=           -303.1162 YYYY=           -394.6110 ZZZZ=           -252.5116 XXXY=             26.1725
 XXXZ=             27.1408 YYYX=             21.7633 YYYZ=              0.3938 ZZZX=             12.0106
 ZZZY=            -18.5446 XXYY=            -88.9391 XXZZ=           -114.2751 YYZZ=            -83.1279
 XXYZ=            -28.5211 YYXZ=             27.8564 ZZXY=             -3.4817
 N-N= 2.988647144821D+02 E-N=-1.880629509610D+03  KE= 5.414398791962D+02
  Exact polarizability:  47.153   0.315  47.619   0.109  -0.651  45.485
 Approx polarizability:  56.787   0.457  56.447   1.179  -2.087  55.565
 Calling FoFJK, ICntrl=    100127 FMM=F ISym2X=0 I1Cent= 0 IOpClX= 0 NMat=1 NMatS=1 NMatT=0.
 ***** Axes restored to original set *****
 -------------------------------------------------------------------
 Center     Atomic                   Forces (Hartrees/Bohr)
 Number     Number              X              Y              Z
 -------------------------------------------------------------------
      1        8           0.006463807   -0.000729474    0.006550877
      2        1           0.000726421   -0.004301589   -0.008821150
      3        1           0.004798459   -0.002939529   -0.007420392
      4        1          -0.007430493    0.006275548    0.000678987
      5        1           0.007228700    0.006138586    0.004837641
      6        1          -0.001351080   -0.010329762    0.006796299
      7        1          -0.007870400    0.005424228    0.000150984
      8        8           0.006398360   -0.003467081   -0.009490169
      9        8          -0.008184149    0.002845390   -0.011021453
     10        8          -0.003553898   -0.006564202    0.012660382
     11        1          -0.003929332    0.010574379   -0.004576152
     12        1           0.001473890   -0.002470465    0.009112500
     13        8           0.009412594    0.010248022    0.006156378
     14        1           0.003721536   -0.012734963   -0.004730661
     15        1          -0.009630563   -0.000738952   -0.002824772
     16       11           0.001726147    0.002769862    0.001940703
 -------------------------------------------------------------------
 Cartesian Forces:  Max     0.012734963 RMS     0.006557452

 GradGradGradGradGradGradGradGradGradGradGradGradGradGradGradGradGradGrad
 Berny optimization.
 Search for a local minimum.
 Step number   1 out of a maximum of  500
 All quantities printed in internal units (Hartrees-Bohrs-Radians)
 Second derivative matrix not updated -- analytic derivatives used.
 ITU=  0
     Eigenvalues ---   -0.00851  -0.00685  -0.00640  -0.00577  -0.00524
     Eigenvalues ---   -0.00494  -0.00428  -0.00358  -0.00320  -0.00259
     Eigenvalues ---   -0.00199  -0.00187  -0.00154  -0.00048  -0.00037
     Eigenvalues ---    0.00042   0.00119   0.00295   0.00322   0.00428
     Eigenvalues ---    0.00481   0.00730   0.00800   0.00998   0.02073
     Eigenvalues ---    0.02986   0.03819   0.14977   0.15380   0.15836
     Eigenvalues ---    0.16072   0.16272   0.84826   0.89751   0.91536
     Eigenvalues ---    0.94885   0.96533   1.08682   1.13723   1.17645
     Eigenvalues ---    1.24224   1.27410
 RFO step:  Lambda=-1.95226764D-02 EMin=-8.50699295D-03
 Linear search not attempted -- first point.
 Maximum step size (   0.100) exceeded in Quadratic search.
    -- Step size scaled by   0.136
 B after Tr=    -0.002270    0.000519    0.000453
         Rot=    1.000000    0.000128   -0.000303    0.000230 Ang=   0.05 deg.
 Variable       Old X    -DE/DX   Delta X   Delta X   Delta X     New X
                                 (Linear)    (Quad)   (Total)
    X1       -2.76913   0.00646   0.00000  -0.00117  -0.00483  -2.77396
    Y1        1.29276  -0.00073   0.00000  -0.00281  -0.00186   1.29091
    Z1       -3.27894   0.00655   0.00000   0.00547   0.00728  -3.27166
    X2       -2.65234   0.00073   0.00000   0.02427   0.01925  -2.63309
    Y2        0.39930  -0.00430   0.00000   0.01750   0.01798   0.41728
    Z2       -4.84685  -0.00882   0.00000  -0.00676  -0.00482  -4.85166
    X3        3.30324   0.00480   0.00000   0.01120   0.00605   3.30929
    Y3        0.80861  -0.00294   0.00000   0.00114  -0.00124   0.80738
    Z3       -5.35960  -0.00742   0.00000  -0.00576  -0.00752  -5.36712
    X4       -4.22176  -0.00743   0.00000  -0.00712  -0.01041  -4.23217
    Y4        2.35328   0.00628   0.00000  -0.00805  -0.00647   2.34681
    Z4       -3.46848   0.00068   0.00000   0.00397   0.00639  -3.46209
    X5        3.93063   0.00723   0.00000  -0.01154  -0.01145   3.91918
    Y5       -0.27581   0.00614   0.00000   0.00562   0.00539  -0.27042
    Z5        4.09798   0.00484   0.00000   0.00338   0.00152   4.09951
    X6        2.43399  -0.00135   0.00000   0.01212   0.01095   2.44493
    Y6       -2.70031  -0.01033   0.00000  -0.01664  -0.01626  -2.71656
    Z6        3.85875   0.00680   0.00000   0.01515   0.01482   3.87356
    X7       -3.37883  -0.00787   0.00000   0.01313   0.01439  -3.36444
    Y7        3.23429   0.00542   0.00000   0.00246   0.00538   3.23967
    Z7        3.38348   0.00015   0.00000  -0.01436  -0.01270   3.37078
    X8       -1.72721   0.00640   0.00000   0.01479   0.01567  -1.71154
    Y8        2.50296  -0.00347   0.00000  -0.00252  -0.00037   2.50259
    Z8        3.29804  -0.00949   0.00000   0.01106   0.01191   3.30996
    X9        3.22389  -0.00818   0.00000  -0.02674  -0.02791   3.19598
    Y9       -1.40586   0.00285   0.00000   0.00533   0.00512  -1.40074
    Z9        2.87533  -0.01102   0.00000   0.00915   0.00802   2.88336
   X10        2.97821  -0.00355   0.00000  -0.04129  -0.04520   2.93301
   Y10        1.28086  -0.00656   0.00000  -0.02609  -0.02786   1.25300
   Z10       -3.64373   0.01266   0.00000  -0.00591  -0.00755  -3.65128
   X11        1.81038  -0.00393   0.00000   0.00861   0.00528   1.81565
   Y11        2.65695   0.01057   0.00000   0.01730   0.01602   2.67297
   Z11       -3.76656  -0.00458   0.00000  -0.02012  -0.02145  -3.78801
   X12       -1.49286   0.00147   0.00000  -0.01578  -0.01428  -1.50714
   Y12        1.72249  -0.00247   0.00000  -0.01046  -0.00799   1.71449
   Z12        4.91263   0.00911   0.00000   0.01408   0.01501   4.92764
   X13       -2.68560   0.00941   0.00000   0.02011   0.01637  -2.66924
   Y13       -3.76226   0.01025   0.00000   0.02184   0.02369  -3.73857
   Z13        0.41608   0.00616   0.00000  -0.01864  -0.01562   0.40046
   X14       -1.48071   0.00372   0.00000   0.01217   0.00739  -1.47333
   Y14       -4.60602  -0.01273   0.00000  -0.02433  -0.02330  -4.62932
   Z14       -0.63603  -0.00473   0.00000   0.00640   0.00893  -0.62710
   X15       -4.23650  -0.00963   0.00000   0.01472   0.01036  -4.22614
   Y15       -3.85069  -0.00074   0.00000   0.00089   0.00322  -3.84747
   Z15       -0.50987  -0.00282   0.00000  -0.01275  -0.00876  -0.51862
   X16        0.00000   0.00173   0.00000   0.01062   0.00836   0.00836
   Y16        0.00000   0.00277   0.00000   0.00802   0.00854   0.00854
   Z16        0.00000   0.00194   0.00000   0.00409   0.00453   0.00453
         Item               Value     Threshold  Converged?
 Maximum Force            0.012735     0.000450     NO 
 RMS     Force            0.006557     0.000300     NO 
 Maximum Displacement     0.045196     0.001800     NO 
 RMS     Displacement     0.014233     0.001200     NO 
 Predicted change in Energy=-1.552709D-03
 GradGradGradGradGradGradGradGradGradGradGradGradGradGradGradGradGradGrad

                          Input orientation:                          
 ---------------------------------------------------------------------
 Center     Atomic      Atomic             Coordinates (Angstroms)
 Number     Number       Type             X           Y           Z
 ---------------------------------------------------------------------
      1          8           0       -1.467916    0.683118   -1.731289
      2          1           0       -1.393372    0.220815   -2.567390
      3          1           0        1.751202    0.427246   -2.840160
      4          1           0       -2.239568    1.241876   -1.832059
      5          1           0        2.073943   -0.143098    2.169366
      6          1           0        1.293804   -1.437542    2.049802
      7          1           0       -1.780387    1.714358    1.783739
      8          8           0       -0.905705    1.324315    1.751555
      9          8           0        1.691242   -0.741241    1.525806
     10          8           0        1.552083    0.663058   -1.932176
     11          1           0        0.960803    1.414476   -2.004530
     12          1           0       -0.797544    0.907271    2.607593
     13          8           0       -1.412499   -1.978366    0.211915
     14          1           0       -0.779650   -2.449730   -0.331845
     15          1           0       -2.236377   -2.035996   -0.274444
     16         11           0        0.004422    0.004519    0.002397
 ---------------------------------------------------------------------
                    Distance matrix (angstroms):
                    1          2          3          4          5
     1  O    0.000000
     2  H    0.958303   0.000000
     3  H    3.414350   3.163126   0.000000
     4  H    0.958025   1.516352   4.195967   0.000000
     5  H    5.333152   5.881460   5.052208   6.044496   0.000000
     6  H    5.140131   5.593704   5.253416   5.893457   1.516080
     7  H    3.676482   4.616576   5.958961   3.675334   4.295895
     8  O    3.585724   4.484285   5.380310   3.824692   3.347562
     9  O    4.755811   5.214849   4.520024   5.537081   0.958334
    10  O    3.026740   3.045453   0.959005   3.836883   4.212467
    11  H    2.551121   2.698848   1.515794   3.209659   4.592007
    12  H    4.396083   5.254206   6.033618   4.679947   3.088811
    13  O    3.295848   3.544192   5.011101   3.902798   4.399443
    14  H    3.499556   3.536401   4.579722   4.243814   4.440676
    15  H    3.179075   3.325877   5.343337   3.629135   5.304161
    16  Na   2.373594   2.933329   3.363045   3.151472   3.000076
                    6          7          8          9         10
     6  H    0.000000
     7  H    4.410886   0.000000
     8  O    3.543253   0.958248   0.000000
     9  O    0.957791   4.260129   3.325901   0.000000
    10  O    4.509477   5.100845   4.477484   3.734844   0.000000
    11  H    4.968149   4.685620   4.195254   4.200467   0.958893
    12  H    3.191083   1.515291   0.958346   3.175202   5.117606
    13  O    3.315779   4.030159   3.678998   3.590263   4.512538
    14  H    3.316018   4.776694   4.312755   3.532012   4.205650
    15  H    4.268775   4.302232   4.143313   4.510374   4.938158
    16  Na   2.816719   3.046683   2.372709   2.392131   2.563495
                   11         12         13         14         15
    11  H    0.000000
    12  H    4.961927   0.000000
    13  O    4.696442   3.800571   0.000000
    14  H    4.556220   4.462070   0.958310   0.000000
    15  H    5.012077   4.363392   0.958458   1.515429   0.000000
    16  Na   2.632565   2.871438   2.446098   2.598043   3.043275
                   16
    16  Na   0.000000
 Stoichiometry    H10NaO5(1+)
 Framework group  C1[X(H10NaO5)]
 Deg. of freedom    42
 Full point group                 C1      NOp   1
 Largest Abelian subgroup         C1      NOp   1
 Largest concise Abelian subgroup C1      NOp   1
                         Standard orientation:                         
 ---------------------------------------------------------------------
 Center     Atomic      Atomic             Coordinates (Angstroms)
 Number     Number       Type             X           Y           Z
 ---------------------------------------------------------------------
      1          8           0       -1.955634   -1.083886    0.375461
      2          1           0       -2.640453   -0.993597   -0.288780
      3          1           0       -2.571465    2.162781   -0.483430
      4          1           0       -2.280768   -1.763822    0.966889
      5          1           0        2.429073    1.947212    0.204291
      6          1           0        2.530942    1.019746   -0.990668
      7          1           0        1.143132   -1.581147    2.290376
      8          8           0        1.312113   -0.765355    1.816913
      9          8           0        1.906917    1.550745   -0.494689
     10          8           0       -1.778007    1.913463   -0.005983
     11          1           0       -2.100283    1.434033    0.759367
     12          1           0        2.249979   -0.791396    1.621579
     13          8           0        0.563076   -1.553572   -1.697726
     14          1           0        0.229666   -0.940119   -2.354133
     15          1           0        0.008678   -2.329774   -1.791508
     16         11           0        0.055799    0.122265    0.010383
 ---------------------------------------------------------------------
 Rotational constants (GHZ):           1.6093109           1.3674714           1.1637723
 Standard basis: Aug-CC-pVDZ (5D, 7F)
 There are   244 symmetry adapted cartesian basis functions of A   symmetry.
 There are   232 symmetry adapted basis functions of A   symmetry.
   232 basis functions,   406 primitive gaussians,   244 cartesian basis functions
    30 alpha electrons       30 beta electrons
       nuclear repulsion energy       299.4336367383 Hartrees.
 NAtoms=   16 NActive=   16 NUniq=   16 SFac= 1.00D+00 NAtFMM=   60 NAOKFM=F Big=F
 Integral buffers will be    131072 words long.
 Raffenetti 2 integral format.
 Two-electron integral symmetry is turned on.
 Nuclear repulsion after empirical dispersion term =      299.4251886444 Hartrees.
 One-electron integrals computed using PRISM.
 NBasis=   232 RedAO= T EigKep=  2.51D-04  NBF=   232
 NBsUse=   232 1.00D-06 EigRej= -1.00D+00 NBFU=   232
 Initial guess from the checkpoint file:  "sim001_type3_coord-5_0-5-0_10C_b1_id81779_step4600.chk"
 B after Tr=     0.000000    0.000000   -0.000000
         Rot=    0.999985   -0.002715   -0.003315    0.003524 Ang=  -0.64 deg.
 ExpMin= 6.16D-03 ExpMax= 3.17D+04 ExpMxC= 1.08D+03 IAcc=3 IRadAn=         5 AccDes= 0.00D+00
 Harris functional with IExCor=  402 and IRadAn=       5 diagonalized for initial guess.
 HarFok:  IExCor=  402 AccDes= 0.00D+00 IRadAn=         5 IDoV= 1 UseB2=F ITyADJ=14
 ICtDFT=  3500011 ScaDFX=  1.000000  1.000000  1.000000  1.000000
 FoFCou: FMM=F IPFlag=           0 FMFlag=      100000 FMFlg1=           0
         NFxFlg=           0 DoJE=T BraDBF=F KetDBF=T FulRan=T
         wScrn=  0.000000 ICntrl=       500 IOpCl=  0 I1Cent=   200000004 NGrid=           0
         NMat0=    1 NMatS0=      1 NMatT0=    0 NMatD0=    1 NMtDS0=    0 NMtDT0=    0
 Petite list used in FoFCou.
 Requested convergence on RMS density matrix=1.00D-08 within 500 cycles.
 Requested convergence on MAX density matrix=1.00D-06.
 Requested convergence on             energy=1.00D-06.
 No special actions if energy rises.
 SCF Done:  E(RB3LYP) =  -544.441456794     A.U. after    8 cycles
            NFock=  8  Conv=0.71D-08     -V/T= 2.0056
 DoSCS=F DFT=T ScalE2(SS,OS)=  1.000000  1.000000
 Range of M.O.s used for correlation:     1   232
 NBasis=   232 NAE=    30 NBE=    30 NFC=     0 NFV=     0
 NROrb=    232 NOA=    30 NOB=    30 NVA=   202 NVB=   202

 **** Warning!!: The largest alpha MO coefficient is  0.16138685D+02

 Symmetrizing basis deriv contribution to polar:
 IMax=3 JMax=2 DiffMx= 0.00D+00
 G2DrvN: will do    17 centers at a time, making    1 passes.
 Calling FoFCou, ICntrl=  3107 FMM=F I1Cent=   0 AccDes= 1.00D-11.
 End of G2Drv F.D. properties file   721 does not exist.
 End of G2Drv F.D. properties file   722 does not exist.
 End of G2Drv F.D. properties file   788 does not exist.
          IDoAtm=1111111111111111
          Differentiating once with respect to electric field.
                with respect to dipole field.
          Differentiating once with respect to nuclear coordinates.
 Keep R1 ints in memory in canonical form, NReq=408195286.
          There are    51 degrees of freedom in the 1st order CPHF.  IDoFFX=6 NUNeed=     3.
     48 vectors produced by pass  0 Test12= 1.19D-14 1.96D-09 XBig12= 2.26D+01 1.14D+00.
 AX will form    48 AO Fock derivatives at one time.
     48 vectors produced by pass  1 Test12= 1.19D-14 1.96D-09 XBig12= 2.87D+00 2.00D-01.
     48 vectors produced by pass  2 Test12= 1.19D-14 1.96D-09 XBig12= 3.50D-02 2.24D-02.
     48 vectors produced by pass  3 Test12= 1.19D-14 1.96D-09 XBig12= 7.15D-05 9.20D-04.
     48 vectors produced by pass  4 Test12= 1.19D-14 1.96D-09 XBig12= 8.61D-08 3.10D-05.
     25 vectors produced by pass  5 Test12= 1.19D-14 1.96D-09 XBig12= 6.47D-11 1.05D-06.
      3 vectors produced by pass  6 Test12= 1.19D-14 1.96D-09 XBig12= 4.86D-14 2.39D-08.
 InvSVY:  IOpt=1 It=  1 EMax= 6.22D-15
 Solved reduced A of dimension   268 with    51 vectors.
 Isotropic polarizability for W=    0.000000       46.77 Bohr**3.
 End of Minotr F.D. properties file   721 does not exist.
 End of Minotr F.D. properties file   722 does not exist.
 End of Minotr F.D. properties file   788 does not exist.
 Calling FoFJK, ICntrl=    100127 FMM=F ISym2X=0 I1Cent= 0 IOpClX= 0 NMat=1 NMatS=1 NMatT=0.
 ***** Axes restored to original set *****
 -------------------------------------------------------------------
 Center     Atomic                   Forces (Hartrees/Bohr)
 Number     Number              X              Y              Z
 -------------------------------------------------------------------
      1        8           0.005471999   -0.000515472    0.005443547
      2        1           0.000701885   -0.003470473   -0.007517255
      3        1           0.004636520   -0.002559699   -0.005567759
      4        1          -0.006644939    0.005427725    0.000576962
      5        1           0.006589254    0.005181284    0.004018777
      6        1          -0.000646545   -0.009040480    0.005916796
      7        1          -0.006586281    0.004915091    0.000105569
      8        8           0.005246606   -0.003277073   -0.008210884
      9        8          -0.007908875    0.002532333   -0.009266345
     10        8          -0.004263291   -0.005567995    0.010537000
     11        1          -0.002738288    0.009133313   -0.004211358
     12        1           0.001221738   -0.002025793    0.007847345
     13        8           0.008841317    0.009210449    0.004564925
     14        1           0.002828386   -0.011861241   -0.003737741
     15        1          -0.008204926   -0.000585413   -0.002057023
     16       11           0.001455440    0.002503443    0.001557442
 -------------------------------------------------------------------
 Cartesian Forces:  Max     0.011861241 RMS     0.005698606

 GradGradGradGradGradGradGradGradGradGradGradGradGradGradGradGradGradGrad
 Berny optimization.
 Search for a local minimum.
 Step number   2 out of a maximum of  500
 All quantities printed in internal units (Hartrees-Bohrs-Radians)
 Second derivative matrix not updated -- analytic derivatives used.
 DE= -1.55D-03 DEPred=-1.55D-03 R= 9.95D-01
 TightC=F SS=  1.41D+00  RLast= 9.86D-02 DXNew= 1.6818D-01 2.9583D-01
 Trust test= 9.95D-01 RLast= 9.86D-02 DXMaxT set to 1.68D-01
 ITU=  1  0
 Linear search step of   0.197 exceeds DXMaxT=   0.168 but not scaled.
 Quintic linear search produced a step of  2.00000.
 B after Tr=    -0.000000    0.000000   -0.000000
         Rot=    1.000000    0.000000    0.000000   -0.000000 Ang=   0.00 deg.
 Variable       Old X    -DE/DX   Delta X   Delta X   Delta X     New X
                                 (Linear)    (Quad)   (Total)
    X1       -2.77396   0.00547  -0.00966   0.00000  -0.00966  -2.78362
    Y1        1.29091  -0.00052  -0.00371   0.00000  -0.00371   1.28720
    Z1       -3.27166   0.00544   0.01455   0.00000   0.01455  -3.25711
    X2       -2.63309   0.00070   0.03850   0.00000   0.03850  -2.59459
    Y2        0.41728  -0.00347   0.03596   0.00000   0.03596   0.45324
    Z2       -4.85166  -0.00752  -0.00964   0.00000  -0.00964  -4.86130
    X3        3.30929   0.00464   0.01210   0.00000   0.01210   3.32139
    Y3        0.80738  -0.00256  -0.00247   0.00000  -0.00247   0.80491
    Z3       -5.36712  -0.00557  -0.01504   0.00000  -0.01504  -5.38217
    X4       -4.23217  -0.00664  -0.02082   0.00000  -0.02082  -4.25299
    Y4        2.34681   0.00543  -0.01294   0.00000  -0.01294   2.33387
    Z4       -3.46209   0.00058   0.01278   0.00000   0.01278  -3.44931
    X5        3.91918   0.00659  -0.02289   0.00000  -0.02289   3.89629
    Y5       -0.27042   0.00518   0.01078   0.00000   0.01078  -0.25964
    Z5        4.09951   0.00402   0.00305   0.00000   0.00305   4.10255
    X6        2.44493  -0.00065   0.02190   0.00000   0.02190   2.46683
    Y6       -2.71656  -0.00904  -0.03251   0.00000  -0.03251  -2.74907
    Z6        3.87356   0.00592   0.02964   0.00000   0.02964   3.90320
    X7       -3.36444  -0.00659   0.02877   0.00000   0.02877  -3.33567
    Y7        3.23967   0.00492   0.01076   0.00000   0.01076   3.25043
    Z7        3.37078   0.00011  -0.02540   0.00000  -0.02540   3.34538
    X8       -1.71154   0.00525   0.03135   0.00000   0.03135  -1.68019
    Y8        2.50259  -0.00328  -0.00074   0.00000  -0.00074   2.50185
    Z8        3.30996  -0.00821   0.02383   0.00000   0.02383   3.33379
    X9        3.19598  -0.00791  -0.05582   0.00000  -0.05582   3.14017
    Y9       -1.40074   0.00253   0.01024   0.00000   0.01024  -1.39050
    Z9        2.88336  -0.00927   0.01605   0.00000   0.01605   2.89940
   X10        2.93301  -0.00426  -0.09039   0.00000  -0.09039   2.84262
   Y10        1.25300  -0.00557  -0.05572   0.00000  -0.05572   1.19728
   Z10       -3.65128   0.01054  -0.01510   0.00000  -0.01510  -3.66639
   X11        1.81565  -0.00274   0.01056   0.00000   0.01056   1.82621
   Y11        2.67297   0.00913   0.03204   0.00000   0.03204   2.70501
   Z11       -3.78801  -0.00421  -0.04290   0.00000  -0.04290  -3.83091
   X12       -1.50714   0.00122  -0.02855   0.00000  -0.02855  -1.53569
   Y12        1.71449  -0.00203  -0.01598   0.00000  -0.01598   1.69851
   Z12        4.92764   0.00785   0.03002   0.00000   0.03002   4.95766
   X13       -2.66924   0.00884   0.03273   0.00000   0.03273  -2.63650
   Y13       -3.73857   0.00921   0.04737   0.00000   0.04737  -3.69120
   Z13        0.40046   0.00456  -0.03124   0.00000  -0.03124   0.36922
   X14       -1.47333   0.00283   0.01478   0.00000   0.01478  -1.45855
   Y14       -4.62932  -0.01186  -0.04660   0.00000  -0.04660  -4.67592
   Z14       -0.62710  -0.00374   0.01786   0.00000   0.01786  -0.60924
   X15       -4.22614  -0.00820   0.02072   0.00000   0.02072  -4.20542
   Y15       -3.84747  -0.00059   0.00644   0.00000   0.00644  -3.84103
   Z15       -0.51862  -0.00206  -0.01751   0.00000  -0.01751  -0.53614
   X16        0.00836   0.00146   0.01671   0.00000   0.01671   0.02507
   Y16        0.00854   0.00250   0.01708   0.00000   0.01708   0.02562
   Z16        0.00453   0.00156   0.00906   0.00000   0.00906   0.01359
         Item               Value     Threshold  Converged?
 Maximum Force            0.011861     0.000450     NO 
 RMS     Force            0.005699     0.000300     NO 
 Maximum Displacement     0.090392     0.001800     NO 
 RMS     Displacement     0.028467     0.001200     NO 
 Predicted change in Energy=-2.828365D-03
 GradGradGradGradGradGradGradGradGradGradGradGradGradGradGradGradGradGrad

                          Input orientation:                          
 ---------------------------------------------------------------------
 Center     Atomic      Atomic             Coordinates (Angstroms)
 Number     Number       Type             X           Y           Z
 ---------------------------------------------------------------------
      1          8           0       -1.473027    0.681155   -1.723588
      2          1           0       -1.372997    0.239846   -2.572490
      3          1           0        1.757606    0.425939   -2.848120
      4          1           0       -2.250584    1.235028   -1.825296
      5          1           0        2.061828   -0.137394    2.170978
      6          1           0        1.305391   -1.454746    2.065486
      7          1           0       -1.765162    1.720055    1.770296
      8          8           0       -0.889116    1.323924    1.764164
      9          8           0        1.661705   -0.735822    1.534298
     10          8           0        1.504250    0.633575   -1.940169
     11          1           0        0.966390    1.431429   -2.027229
     12          1           0       -0.812652    0.898812    2.623479
     13          8           0       -1.395177   -1.953297    0.195385
     14          1           0       -0.771830   -2.474390   -0.322396
     15          1           0       -2.225411   -2.032588   -0.283711
     16         11           0        0.013267    0.013556    0.007192
 ---------------------------------------------------------------------
                    Distance matrix (angstroms):
                    1          2          3          4          5
     1  O    0.000000
     2  H    0.961974   0.000000
     3  H    3.430262   3.148219   0.000000
     4  H    0.960060   1.522776   4.215019   0.000000
     5  H    5.322863   5.868631   5.059767   6.037438   0.000000
     6  H    5.161275   5.617493   5.280625   5.917603   1.522742
     7  H    3.656759   4.604846   5.951000   3.660488   4.272765
     8  O    3.594234   4.496214   5.393022   3.840016   3.317985
     9  O    4.737952   5.198754   4.534807   5.520609   0.961029
    10  O    2.985523   2.972104   0.965234   3.804435   4.219813
    11  H    2.570187   2.681401   1.520163   3.229283   4.613690
    12  H    4.402325   5.267477   6.063682   4.687461   3.088870
    13  O    3.260193   3.531501   4.986355   3.870439   4.376226
    14  H    3.523136   3.576507   4.603178   4.266757   4.439379
    15  H    3.162867   3.336027   5.337132   3.613092   5.291283
    16  Na   2.377048   2.937294   3.371288   3.158327   2.983515
                    6          7          8          9         10
     6  H    0.000000
     7  H    4.426601   0.000000
     8  O    3.553542   0.961464   0.000000
     9  O    0.962274   4.222611   3.286652   0.000000
    10  O    4.521714   5.063304   4.463952   3.737909   0.000000
    11  H    5.019486   4.686777   4.222455   4.226691   0.966149
    12  H    3.215074   1.519748   0.961764   3.159238   5.124966
    13  O    3.322483   4.013819   3.668425   3.552387   4.433867
    14  H    3.325132   4.791601   4.335283   3.520230   4.178179
    15  H    4.280092   4.302685   4.152788   4.482903   4.874695
    16  Na   2.839378   3.030427   2.370298   2.368748   2.529757
                   11         12         13         14         15
    11  H    0.000000
    12  H    5.007770   0.000000
    13  O    4.687577   3.790712   0.000000
    14  H    4.602531   4.478653   0.963430   0.000000
    15  H    5.022635   4.363570   0.961826   1.519731   0.000000
    16  Na   2.656628   2.882842   2.426447   2.629617   3.046803
                   16
    16  Na   0.000000
 Stoichiometry    H10NaO5(1+)
 Framework group  C1[X(H10NaO5)]
 Deg. of freedom    42
 Full point group                 C1      NOp   1
 Largest Abelian subgroup         C1      NOp   1
 Largest concise Abelian subgroup C1      NOp   1
                         Standard orientation:                         
 ---------------------------------------------------------------------
 Center     Atomic      Atomic             Coordinates (Angstroms)
 Number     Number       Type             X           Y           Z
 ---------------------------------------------------------------------
      1          8           0       -1.958319   -1.064863    0.384460
      2          1           0       -2.664356   -0.926405   -0.254081
      3          1           0       -2.554687    2.215401   -0.422335
      4          1           0       -2.285403   -1.755369    0.965779
      5          1           0        2.456355    1.903518    0.204909
      6          1           0        2.551407    1.011781   -1.025746
      7          1           0        1.139251   -1.609152    2.250122
      8          8           0        1.339761   -0.790974    1.786664
      9          8           0        1.923880    1.506619   -0.489726
     10          8           0       -1.759309    1.891421    0.018219
     11          1           0       -2.095426    1.464901    0.817312
     12          1           0        2.275240   -0.859389    1.574091
     13          8           0        0.499247   -1.509692   -1.711096
     14          1           0        0.200578   -0.900200   -2.394845
     15          1           0       -0.055902   -2.286480   -1.827369
     16         11           0        0.060987    0.134665    0.018545
 ---------------------------------------------------------------------
 Rotational constants (GHZ):           1.6435898           1.3685504           1.1775148
 Standard basis: Aug-CC-pVDZ (5D, 7F)
 There are   244 symmetry adapted cartesian basis functions of A   symmetry.
 There are   232 symmetry adapted basis functions of A   symmetry.
   232 basis functions,   406 primitive gaussians,   244 cartesian basis functions
    30 alpha electrons       30 beta electrons
       nuclear repulsion energy       300.4937928748 Hartrees.
 NAtoms=   16 NActive=   16 NUniq=   16 SFac= 1.00D+00 NAtFMM=   60 NAOKFM=F Big=F
 Integral buffers will be    131072 words long.
 Raffenetti 2 integral format.
 Two-electron integral symmetry is turned on.
 Nuclear repulsion after empirical dispersion term =      300.4853648145 Hartrees.
 One-electron integrals computed using PRISM.
 NBasis=   232 RedAO= T EigKep=  2.53D-04  NBF=   232
 NBsUse=   232 1.00D-06 EigRej= -1.00D+00 NBFU=   232
 Initial guess from the checkpoint file:  "sim001_type3_coord-5_0-5-0_10C_b1_id81779_step4600.chk"
 B after Tr=    -0.000000   -0.000000    0.000000
         Rot=    0.999943   -0.006145   -0.006486    0.005785 Ang=  -1.22 deg.
 ExpMin= 6.16D-03 ExpMax= 3.17D+04 ExpMxC= 1.08D+03 IAcc=3 IRadAn=         5 AccDes= 0.00D+00
 Harris functional with IExCor=  402 and IRadAn=       5 diagonalized for initial guess.
 HarFok:  IExCor=  402 AccDes= 0.00D+00 IRadAn=         5 IDoV= 1 UseB2=F ITyADJ=14
 ICtDFT=  3500011 ScaDFX=  1.000000  1.000000  1.000000  1.000000
 FoFCou: FMM=F IPFlag=           0 FMFlag=      100000 FMFlg1=           0
         NFxFlg=           0 DoJE=T BraDBF=F KetDBF=T FulRan=T
         wScrn=  0.000000 ICntrl=       500 IOpCl=  0 I1Cent=   200000004 NGrid=           0
         NMat0=    1 NMatS0=      1 NMatT0=    0 NMatD0=    1 NMtDS0=    0 NMtDT0=    0
 Petite list used in FoFCou.
 Requested convergence on RMS density matrix=1.00D-08 within 500 cycles.
 Requested convergence on MAX density matrix=1.00D-06.
 Requested convergence on             energy=1.00D-06.
 No special actions if energy rises.
 SCF Done:  E(RB3LYP) =  -544.444194168     A.U. after    9 cycles
            NFock=  9  Conv=0.27D-08     -V/T= 2.0057
 DoSCS=F DFT=T ScalE2(SS,OS)=  1.000000  1.000000
 Range of M.O.s used for correlation:     1   232
 NBasis=   232 NAE=    30 NBE=    30 NFC=     0 NFV=     0
 NROrb=    232 NOA=    30 NOB=    30 NVA=   202 NVB=   202

 **** Warning!!: The largest alpha MO coefficient is  0.15891823D+02

 Symmetrizing basis deriv contribution to polar:
 IMax=3 JMax=2 DiffMx= 0.00D+00
 G2DrvN: will do    17 centers at a time, making    1 passes.
 Calling FoFCou, ICntrl=  3107 FMM=F I1Cent=   0 AccDes= 1.00D-11.
 End of G2Drv F.D. properties file   721 does not exist.
 End of G2Drv F.D. properties file   722 does not exist.
 End of G2Drv F.D. properties file   788 does not exist.
          IDoAtm=1111111111111111
          Differentiating once with respect to electric field.
                with respect to dipole field.
          Differentiating once with respect to nuclear coordinates.
 Keep R1 ints in memory in canonical form, NReq=408195286.
          There are    51 degrees of freedom in the 1st order CPHF.  IDoFFX=6 NUNeed=     3.
     48 vectors produced by pass  0 Test12= 1.19D-14 1.96D-09 XBig12= 2.26D+01 1.16D+00.
 AX will form    48 AO Fock derivatives at one time.
     48 vectors produced by pass  1 Test12= 1.19D-14 1.96D-09 XBig12= 2.89D+00 2.02D-01.
     48 vectors produced by pass  2 Test12= 1.19D-14 1.96D-09 XBig12= 3.46D-02 2.12D-02.
     48 vectors produced by pass  3 Test12= 1.19D-14 1.96D-09 XBig12= 6.72D-05 9.22D-04.
     48 vectors produced by pass  4 Test12= 1.19D-14 1.96D-09 XBig12= 7.79D-08 3.24D-05.
     25 vectors produced by pass  5 Test12= 1.19D-14 1.96D-09 XBig12= 5.87D-11 1.03D-06.
      3 vectors produced by pass  6 Test12= 1.19D-14 1.96D-09 XBig12= 4.11D-14 2.40D-08.
 InvSVY:  IOpt=1 It=  1 EMax= 4.44D-15
 Solved reduced A of dimension   268 with    51 vectors.
 Isotropic polarizability for W=    0.000000       46.91 Bohr**3.
 End of Minotr F.D. properties file   721 does not exist.
 End of Minotr F.D. properties file   722 does not exist.
 End of Minotr F.D. properties file   788 does not exist.
 Calling FoFJK, ICntrl=    100127 FMM=F ISym2X=0 I1Cent= 0 IOpClX= 0 NMat=1 NMatS=1 NMatT=0.
 ***** Axes restored to original set *****
 -------------------------------------------------------------------
 Center     Atomic                   Forces (Hartrees/Bohr)
 Number     Number              X              Y              Z
 -------------------------------------------------------------------
      1        8           0.003653777   -0.000478492    0.002403092
      2        1           0.000436434   -0.001449315   -0.004023654
      3        1           0.003596604   -0.001828778    0.000718702
      4        1          -0.005031829    0.003756222    0.000339598
      5        1           0.005208939    0.003199549    0.002250333
      6        1           0.001179683   -0.005142917    0.003134524
      7        1          -0.003564784    0.003651955    0.000146092
      8        8           0.002441770   -0.003043819   -0.005059885
      9        8          -0.007629230    0.000622191   -0.004545444
     10        8          -0.006570379   -0.000236800    0.002672826
     11        1           0.001307395    0.002961009   -0.002547508
     12        1           0.000765173   -0.000734201    0.004590754
     13        8           0.008869937    0.005288305   -0.000090131
     14        1          -0.000366782   -0.008549301   -0.000478093
     15        1          -0.005157081   -0.000049510   -0.000326340
     16       11           0.000860373    0.002033903    0.000815134
 -------------------------------------------------------------------
 Cartesian Forces:  Max     0.008869937 RMS     0.003600666

 GradGradGradGradGradGradGradGradGradGradGradGradGradGradGradGradGradGrad
 Berny optimization.
 Search for a local minimum.
 Step number   3 out of a maximum of  500
 All quantities printed in internal units (Hartrees-Bohrs-Radians)
 Second derivative matrix not updated -- analytic derivatives used.
 ITU=  0  1  0
 Linear search step of   0.262 exceeds DXMaxT=   0.168 but not scaled.
 Quintic linear search produced a step of  1.32830.
 B after Tr=    -0.000000   -0.000000   -0.000000
         Rot=    1.000000   -0.000000    0.000000   -0.000000 Ang=   0.00 deg.
 Variable       Old X    -DE/DX   Delta X   Delta X   Delta X     New X
                                 (Linear)    (Quad)   (Total)
    X1       -2.78362   0.00365  -0.01283   0.00000  -0.01283  -2.79645
    Y1        1.28720  -0.00048  -0.00493   0.00000  -0.00493   1.28227
    Z1       -3.25711   0.00240   0.01933   0.00000   0.01933  -3.23778
    X2       -2.59459   0.00044   0.05114   0.00000   0.05114  -2.54344
    Y2        0.45324  -0.00145   0.04777   0.00000   0.04777   0.50101
    Z2       -4.86130  -0.00402  -0.01280   0.00000  -0.01280  -4.87410
    X3        3.32139   0.00360   0.01608   0.00000   0.01608   3.33747
    Y3        0.80491  -0.00183  -0.00328   0.00000  -0.00328   0.80163
    Z3       -5.38217   0.00072  -0.01998   0.00000  -0.01998  -5.40215
    X4       -4.25299  -0.00503  -0.02765   0.00000  -0.02765  -4.28064
    Y4        2.33387   0.00376  -0.01719   0.00000  -0.01719   2.31668
    Z4       -3.44931   0.00034   0.01698   0.00000   0.01698  -3.43233
    X5        3.89629   0.00521  -0.03041   0.00000  -0.03041   3.86588
    Y5       -0.25964   0.00320   0.01432   0.00000   0.01432  -0.24532
    Z5        4.10255   0.00225   0.00405   0.00000   0.00405   4.10660
    X6        2.46683   0.00118   0.02909   0.00000   0.02909   2.49592
    Y6       -2.74907  -0.00514  -0.04318   0.00000  -0.04318  -2.79226
    Z6        3.90320   0.00313   0.03937   0.00000   0.03937   3.94257
    X7       -3.33567  -0.00356   0.03822   0.00000   0.03822  -3.29746
    Y7        3.25043   0.00365   0.01430   0.00000   0.01430   3.26473
    Z7        3.34538   0.00015  -0.03374   0.00000  -0.03374   3.31163
    X8       -1.68019   0.00244   0.04164   0.00000   0.04164  -1.63855
    Y8        2.50185  -0.00304  -0.00098   0.00000  -0.00098   2.50087
    Z8        3.33379  -0.00506   0.03165   0.00000   0.03165   3.36544
    X9        3.14017  -0.00763  -0.07414   0.00000  -0.07414   3.06603
    Y9       -1.39050   0.00062   0.01360   0.00000   0.01360  -1.37690
    Z9        2.89940  -0.00455   0.02132   0.00000   0.02132   2.92072
   X10        2.84262  -0.00657  -0.12007   0.00000  -0.12007   2.72255
   Y10        1.19728  -0.00024  -0.07401   0.00000  -0.07401   1.12328
   Z10       -3.66639   0.00267  -0.02006   0.00000  -0.02006  -3.68645
   X11        1.82621   0.00131   0.01402   0.00000   0.01402   1.84023
   Y11        2.70501   0.00296   0.04255   0.00000   0.04255   2.74756
   Z11       -3.83091  -0.00255  -0.05698   0.00000  -0.05698  -3.88789
   X12       -1.53569   0.00077  -0.03792   0.00000  -0.03792  -1.57361
   Y12        1.69851  -0.00073  -0.02123   0.00000  -0.02123   1.67728
   Z12        4.95766   0.00459   0.03988   0.00000   0.03988   4.99753
   X13       -2.63650   0.00887   0.04348   0.00000   0.04348  -2.59302
   Y13       -3.69120   0.00529   0.06293   0.00000   0.06293  -3.62827
   Z13        0.36922  -0.00009  -0.04149   0.00000  -0.04149   0.32773
   X14       -1.45855  -0.00037   0.01963   0.00000   0.01963  -1.43892
   Y14       -4.67592  -0.00855  -0.06190   0.00000  -0.06190  -4.73782
   Z14       -0.60924  -0.00048   0.02372   0.00000   0.02372  -0.58552
   X15       -4.20542  -0.00516   0.02753   0.00000   0.02753  -4.17789
   Y15       -3.84103  -0.00005   0.00855   0.00000   0.00855  -3.83248
   Z15       -0.53614  -0.00033  -0.02326   0.00000  -0.02326  -0.55940
   X16        0.02507   0.00086   0.02220   0.00000   0.02220   0.04727
   Y16        0.02562   0.00203   0.02268   0.00000   0.02268   0.04830
   Z16        0.01359   0.00082   0.01204   0.00000   0.01204   0.02563
         Item               Value     Threshold  Converged?
 Maximum Force            0.008870     0.000450     NO 
 RMS     Force            0.003601     0.000300     NO 
 Maximum Displacement     0.120067     0.001800     NO 
 RMS     Displacement     0.037812     0.001200     NO 
 Predicted change in Energy=-2.250869D-03
 GradGradGradGradGradGradGradGradGradGradGradGradGradGradGradGradGradGrad

                          Input orientation:                          
 ---------------------------------------------------------------------
 Center     Atomic      Atomic             Coordinates (Angstroms)
 Number     Number       Type             X           Y           Z
 ---------------------------------------------------------------------
      1          8           0       -1.479817    0.678547   -1.713358
      2          1           0       -1.345933    0.265124   -2.579264
      3          1           0        1.766113    0.424203   -2.858693
      4          1           0       -2.265217    1.225932   -1.816313
      5          1           0        2.045737   -0.129818    2.173120
      6          1           0        1.320783   -1.477598    2.086318
      7          1           0       -1.744938    1.727621    1.752441
      8          8           0       -0.867081    1.323405    1.780913
      9          8           0        1.622471   -0.728625    1.545577
     10          8           0        1.440713    0.594412   -1.950786
     11          1           0        0.973810    1.453946   -2.057381
     12          1           0       -0.832721    0.887576    2.644581
     13          8           0       -1.372168   -1.919999    0.173429
     14          1           0       -0.761443   -2.507147   -0.309844
     15          1           0       -2.210845   -2.028061   -0.296020
     16         11           0        0.025016    0.025560    0.013561
 ---------------------------------------------------------------------
                    Distance matrix (angstroms):
                    1          2          3          4          5
     1  O    0.000000
     2  H    0.968832   0.000000
     3  H    3.451455   3.128613   0.000000
     4  H    0.962852   1.533079   4.240395   0.000000
     5  H    5.309208   5.851885   5.069938   6.028097   0.000000
     6  H    5.189399   5.649435   5.316795   5.949706   1.532842
     7  H    3.630787   4.589311   5.940450   3.641207   4.242201
     8  O    3.605721   4.512251   5.410012   3.860612   3.278748
     9  O    4.714338   5.178154   4.554914   5.498792   0.965160
    10  O    2.931372   2.875554   0.979363   3.761757   4.230504
    11  H    2.596128   2.658358   1.526505   3.255979   4.642680
    12  H    4.410676   5.285772   6.103661   4.697457   3.089156
    13  O    3.213097   3.514651   4.953570   3.827988   4.345755
    14  H    3.554512   3.630066   4.634435   4.297286   4.438137
    15  H    3.141493   3.349623   5.328892   3.592036   5.274322
    16  Na   2.381840   2.942725   3.382333   3.167728   2.961613
                    6          7          8          9         10
     6  H    0.000000
     7  H    4.447870   0.000000
     8  O    3.567301   0.966869   0.000000
     9  O    0.971791   4.173174   3.234822   0.000000
    10  O    4.539363   5.014621   4.447800   3.742729   0.000000
    11  H    5.087690   4.688415   4.258923   4.262122   0.983951
    12  H    3.247042   1.527655   0.968013   3.138133   5.135352
    13  O    3.332694   3.992163   3.654967   3.502859   4.329763
    14  H    3.337248   4.811812   4.365266   3.505534   4.142686
    15  H    4.295456   4.303302   4.165534   4.446833   4.790563
    16  Na   2.869638   3.008896   2.367229   2.338318   2.487257
                   11         12         13         14         15
    11  H    0.000000
    12  H    5.068804   0.000000
    13  O    4.675856   3.778898   0.000000
    14  H    4.664252   4.500871   0.975336   0.000000
    15  H    5.036744   4.364321   0.967181   1.526591   0.000000
    16  Na   2.688735   2.898456   2.400600   2.671650   3.051602
                   16
    16  Na   0.000000
 Stoichiometry    H10NaO5(1+)
 Framework group  C1[X(H10NaO5)]
 Deg. of freedom    42
 Full point group                 C1      NOp   1
 Largest Abelian subgroup         C1      NOp   1
 Largest concise Abelian subgroup C1      NOp   1
                         Standard orientation:                         
 ---------------------------------------------------------------------
 Center     Atomic      Atomic             Coordinates (Angstroms)
 Number     Number       Type             X           Y           Z
 ---------------------------------------------------------------------
      1          8           0       -1.957448   -1.049015    0.391954
      2          1           0       -2.689594   -0.847737   -0.209783
      3          1           0       -2.538807    2.274770   -0.334009
      4          1           0       -2.285324   -1.756373    0.956956
      5          1           0        2.484079    1.854100    0.211813
      6          1           0        2.574263    1.015405   -1.068056
      7          1           0        1.138271   -1.647828    2.192108
      8          8           0        1.377860   -0.825465    1.743608
      9          8           0        1.939696    1.456707   -0.479027
     10          8           0       -1.743468    1.854900    0.053672
     11          1           0       -2.093222    1.493424    0.899348
     12          1           0        2.308774   -0.945093    1.506677
     13          8           0        0.422956   -1.442331   -1.730067
     14          1           0        0.166574   -0.836587   -2.450222
     15          1           0       -0.131053   -2.220889   -1.879602
     16         11           0        0.068116    0.150768    0.030332
 ---------------------------------------------------------------------
 Rotational constants (GHZ):           1.6909594           1.3694896           1.1951388
 Standard basis: Aug-CC-pVDZ (5D, 7F)
 There are   244 symmetry adapted cartesian basis functions of A   symmetry.
 There are   232 symmetry adapted basis functions of A   symmetry.
   232 basis functions,   406 primitive gaussians,   244 cartesian basis functions
    30 alpha electrons       30 beta electrons
       nuclear repulsion energy       301.7824319194 Hartrees.
 NAtoms=   16 NActive=   16 NUniq=   16 SFac= 1.00D+00 NAtFMM=   60 NAOKFM=F Big=F
 Integral buffers will be    131072 words long.
 Raffenetti 2 integral format.
 Two-electron integral symmetry is turned on.
 Nuclear repulsion after empirical dispersion term =      301.7740078359 Hartrees.
 One-electron integrals computed using PRISM.
 NBasis=   232 RedAO= T EigKep=  2.58D-04  NBF=   232
 NBsUse=   232 1.00D-06 EigRej= -1.00D+00 NBFU=   232
 Initial guess from the checkpoint file:  "sim001_type3_coord-5_0-5-0_10C_b1_id81779_step4600.chk"
 B after Tr=     0.000000    0.000000   -0.000000
         Rot=    0.999901   -0.009802   -0.008314    0.005638 Ang=  -1.61 deg.
 ExpMin= 6.16D-03 ExpMax= 3.17D+04 ExpMxC= 1.08D+03 IAcc=3 IRadAn=         5 AccDes= 0.00D+00
 Harris functional with IExCor=  402 and IRadAn=       5 diagonalized for initial guess.
 HarFok:  IExCor=  402 AccDes= 0.00D+00 IRadAn=         5 IDoV= 1 UseB2=F ITyADJ=14
 ICtDFT=  3500011 ScaDFX=  1.000000  1.000000  1.000000  1.000000
 FoFCou: FMM=F IPFlag=           0 FMFlag=      100000 FMFlg1=           0
         NFxFlg=           0 DoJE=T BraDBF=F KetDBF=T FulRan=T
         wScrn=  0.000000 ICntrl=       500 IOpCl=  0 I1Cent=   200000004 NGrid=           0
         NMat0=    1 NMatS0=      1 NMatT0=    0 NMatD0=    1 NMtDS0=    0 NMtDT0=    0
 Petite list used in FoFCou.
 Requested convergence on RMS density matrix=1.00D-08 within 500 cycles.
 Requested convergence on MAX density matrix=1.00D-06.
 Requested convergence on             energy=1.00D-06.
 No special actions if energy rises.
 SCF Done:  E(RB3LYP) =  -544.446115875     A.U. after    9 cycles
            NFock=  9  Conv=0.41D-08     -V/T= 2.0059
 DoSCS=F DFT=T ScalE2(SS,OS)=  1.000000  1.000000
 Range of M.O.s used for correlation:     1   232
 NBasis=   232 NAE=    30 NBE=    30 NFC=     0 NFV=     0
 NROrb=    232 NOA=    30 NOB=    30 NVA=   202 NVB=   202

 **** Warning!!: The largest alpha MO coefficient is  0.15435411D+02

 Symmetrizing basis deriv contribution to polar:
 IMax=3 JMax=2 DiffMx= 0.00D+00
 G2DrvN: will do    17 centers at a time, making    1 passes.
 Calling FoFCou, ICntrl=  3107 FMM=F I1Cent=   0 AccDes= 1.00D-11.
 End of G2Drv F.D. properties file   721 does not exist.
 End of G2Drv F.D. properties file   722 does not exist.
 End of G2Drv F.D. properties file   788 does not exist.
          IDoAtm=1111111111111111
          Differentiating once with respect to electric field.
                with respect to dipole field.
          Differentiating once with respect to nuclear coordinates.
 Keep R1 ints in memory in canonical form, NReq=408195286.
          There are    51 degrees of freedom in the 1st order CPHF.  IDoFFX=6 NUNeed=     3.
     48 vectors produced by pass  0 Test12= 1.19D-14 1.96D-09 XBig12= 2.30D+01 1.17D+00.
 AX will form    48 AO Fock derivatives at one time.
     48 vectors produced by pass  1 Test12= 1.19D-14 1.96D-09 XBig12= 2.99D+00 2.27D-01.
     48 vectors produced by pass  2 Test12= 1.19D-14 1.96D-09 XBig12= 3.40D-02 2.39D-02.
     48 vectors produced by pass  3 Test12= 1.19D-14 1.96D-09 XBig12= 6.30D-05 9.10D-04.
     48 vectors produced by pass  4 Test12= 1.19D-14 1.96D-09 XBig12= 6.93D-08 3.56D-05.
     26 vectors produced by pass  5 Test12= 1.19D-14 1.96D-09 XBig12= 5.08D-11 7.90D-07.
      3 vectors produced by pass  6 Test12= 1.19D-14 1.96D-09 XBig12= 3.24D-14 1.84D-08.
 InvSVY:  IOpt=1 It=  1 EMax= 3.55D-15
 Solved reduced A of dimension   269 with    51 vectors.
 Isotropic polarizability for W=    0.000000       47.29 Bohr**3.
 End of Minotr F.D. properties file   721 does not exist.
 End of Minotr F.D. properties file   722 does not exist.
 End of Minotr F.D. properties file   788 does not exist.
 Calling FoFJK, ICntrl=    100127 FMM=F ISym2X=0 I1Cent= 0 IOpClX= 0 NMat=1 NMatS=1 NMatT=0.
 ***** Axes restored to original set *****
 -------------------------------------------------------------------
 Center     Atomic                   Forces (Hartrees/Bohr)
 Number     Number              X              Y              Z
 -------------------------------------------------------------------
      1        8           0.001697180   -0.001028100   -0.003227452
      2        1          -0.000478951    0.001747185    0.002319332
      3        1          -0.000009618   -0.001549659    0.013306981
      4        1          -0.002801598    0.001600782   -0.000034179
      5        1           0.003142069    0.000459408   -0.000336643
      6        1           0.003892545    0.002599235   -0.002455303
      7        1           0.001286913    0.001496537    0.000543792
      8        8          -0.002381048   -0.003016501    0.000139298
      9        8          -0.007223175   -0.004449526    0.003983259
     10        8          -0.008488360    0.013838671   -0.014105258
     11        1           0.007871570   -0.011494698    0.001523871
     12        1           0.000418486    0.001771972   -0.001093578
     13        8           0.010704052   -0.004012406   -0.008392096
     14        1          -0.006866709   -0.000690177    0.005649574
     15        1          -0.000734015    0.001187741    0.002281824
     16       11          -0.000029341    0.001539538   -0.000103422
 -------------------------------------------------------------------
 Cartesian Forces:  Max     0.014105258 RMS     0.005227105

 GradGradGradGradGradGradGradGradGradGradGradGradGradGradGradGradGradGrad
 Berny optimization.
 Search for a local minimum.
 Step number   4 out of a maximum of  500
 All quantities printed in internal units (Hartrees-Bohrs-Radians)
 Second derivative matrix not updated -- analytic derivatives used.
 ITU=  0  0  1  0
     Eigenvalues ---   -0.00042  -0.00037  -0.00006   0.00026   0.00039
     Eigenvalues ---    0.00051   0.00073   0.00098   0.00150   0.00208
[...]

 ----------------------------------------------------------------------

 Dipole orientation:
     8         -4.50874730         -2.09186174         -0.64581944
     1         -5.57684534         -2.52185732          0.77156110
     1          1.90223929         -5.24111949         -1.60595475
     1         -5.66114261         -1.85103160         -2.04164826
     1          4.82956282          1.86328231         -2.01281644
     1          4.72947974          2.54451107          0.79730974
     1         -2.73539698          5.25607684         -1.63598497
     8         -1.40827257          4.08282988         -1.20795125
     8          3.66930412          2.10939734         -0.62444215
     8          0.57265485         -4.06672555         -1.18884555
     1         -0.99960635         -4.95089677         -1.47824851
     1          0.16561075          4.96687668         -1.48874206
     8         -0.44038713          0.00735225          4.42459138
     1          0.12221389         -1.32790708          5.53403971
     1         -1.00824990          1.34046860          5.53392463
    11         -0.42223094          0.00998104          0.01512664

 Electric dipole moment (dipole orientation):
 (Debye = 10**-18 statcoulomb cm , SI units = C m)
                  (au)            (Debye)         (10**-30 SI)
   Tot        0.241223D+00      0.613129D+00      0.204518D+01
   x          0.000000D+00      0.000000D+00      0.000000D+00
   y          0.000000D+00      0.000000D+00      0.000000D+00
   z          0.241223D+00      0.613129D+00      0.204518D+01

 Dipole polarizability, Alpha (dipole orientation).
 (esu units = cm**3 , SI units = C**2 m**2 J**-1)
 Alpha(0;0):
               (au)            (10**-24 esu)      (10**-40 SI)
   iso        0.472764D+02      0.700563D+01      0.779482D+01
   aniso      0.327719D+01      0.485629D+00      0.540335D+00
   xx         0.491020D+02      0.727616D+01      0.809582D+01
   yx        -0.840526D+00     -0.124553D+00     -0.138584D+00
   yy         0.469749D+02      0.696096D+01      0.774511D+01
   zx         0.128774D-01      0.190823D-02      0.212320D-02
   zy        -0.274605D-02     -0.406923D-03     -0.452763D-03
   zz         0.457522D+02      0.677978D+01      0.754353D+01

 ----------------------------------------------------------------------

 Test job not archived.
 1\1\GINC-N645\Freq\RB3LYP\Aug-CC-pVDZ\H10Na1O5(1+)\HNR2\18-Jul-2022\0\
 \#N Geom=AllCheck Guess=TCheck SCRF=Check Test GenChk RB3LYP/Aug-CC-pV
 DZ Freq\\MD frame sim001_type3_coord-5_0-5-0_10C_b1_id81779_step4600\\
 1,1\O,-1.4760944216,1.1293178714,-1.8922469786\H,-2.1510473114,0.63204
 3768,-2.372837641\H,2.2150141369,0.1966369309,-2.1172504053\H,-1.76300
 97376,2.0504331054,-1.9464691432\H,2.193977671,0.0969395054,1.95329576
 89\H,1.4548182549,-1.2291808914,2.1511299246\H,-1.9468411794,1.5540851
 705,2.0917836348\O,-1.2036154431,1.0338606638,1.7647496542\O,1.3489211
 139,-0.3407809701,1.7859787182\O,1.3024232553,0.3043840668,-1.82478427
 89\H,0.8312445936,0.7233783777,-2.5576107892\H,-0.6183170583,0.8931864
 916,2.5212079961\O,-1.0785589532,-2.0743105037,-0.2653138864\H,-0.7812
 314795,-2.7818533928,-0.8514555526\H,-1.818964165,-2.4501023202,0.2277
 947607\Na,-0.1942392765,0.0770421267,-0.0796917823\\Version=ES64L-G16R
 evB.01\State=1-A\HF=-544.4638806\RMSD=1.122e-09\RMSF=1.339e-06\ZeroPoi
 nt=0.1191484\Thermal=0.1371804\Dipole=-0.0906329,-0.2227674,-0.0186834
 \DipoleDeriv=-0.5282901,-0.0056558,0.0623849,-0.0058652,-0.5128466,0.0
 217809,0.0674615,0.0186226,-0.6084907,0.2491584,0.0076815,-0.035563,0.
 0022439,0.3039164,-0.0111481,-0.0366278,-0.010429,0.3072719,0.2720822,
 0.0010462,0.0376897,0.0020927,0.3261488,0.0183735,0.0352217,0.0196304,
 0.2728709,0.2636767,0.0280344,-0.0307105,0.0312715,0.275411,0.0082397,
 -0.0299851,0.0100238,0.3217577,0.2433125,0.0105872,-0.031053,0.0073614
 ,0.2954465,0.0125346,-0.0322498,0.0109494,0.3220543,0.2731344,0.025080
 5,-0.01629,0.0306225,0.2728628,0.0298584,-0.0167652,0.0297858,0.314313
 3,0.2954308,0.0272598,0.0195307,0.0266398,0.3113505,-0.032494,0.016761
 4,-0.031593,0.2643904,-0.6075944,0.0080291,0.0159502,0.0026414,-0.6072
 016,0.0182947,0.0073845,0.0254208,-0.5084519,-0.5188511,0.006321,0.035
 7731,0.005654,-0.5110893,-0.0451841,0.0415748,-0.0464923,-0.6196257,-0
 .6115809,-0.0001555,-0.0076012,0.0068998,-0.5934034,-0.0363399,-0.0178
 517,-0.03574,-0.5182859,0.400057,-0.0230583,-0.0099678,-0.0264176,0.29
 67954,0.0303512,-0.0046213,0.0315582,0.22279,0.3767288,-0.0482452,-0.0
 264587,-0.0456437,0.3262638,-0.0022164,-0.0230811,-0.0069859,0.2165936
 ,-0.555508,0.0217942,-0.0431575,0.0220769,-0.5217716,0.0239675,-0.0458
 126,0.0250753,-0.5835298,0.3105968,-0.0123412,0.0071524,-0.0151326,0.2
 485467,-0.0267353,0.0073204,-0.030236,0.3111926,0.2913002,-0.035917,0.
 0175211,-0.0334368,0.2619897,0.0046383,0.0204271,0.0068113,0.3170249,0
 .8463463,-0.0104609,0.0047995,-0.011008,0.8275808,-0.013921,0.0108433,
 -0.0164014,0.9681244\Polar=48.8547458,-1.2836403,46.2901707,0.1008643,
 -0.1216913,46.684186\Quadrupole=0.1448551,-2.7668517,2.6219967,-1.7836
 812,2.7282508,-1.632018\PG=C01 [X(H10Na1O5)]\NImag=0\\0.35343130,0.022
 03833,0.63860995,0.21519873,0.09527715,0.15852097,-0.26577050,-0.18618
 163,-0.18644175,0.25993657,-0.13931115,-0.16547397,-0.10666314,0.17370
 339,0.18744446,-0.17963568,-0.13503179,-0.13348912,0.18131320,0.131024
 62,0.13242209,0.00010057,0.00027047,-0.00027702,-0.00016195,0.00007827
 ,0.00014084,0.48699118,0.00045422,0.00048176,0.00014768,0.00022411,-0.
 00006835,-0.00005375,-0.06648405,0.01805942,-0.00049989,0.00024490,0.0
 0039077,0.00006843,0.00000074,0.00010813,-0.13305544,0.00166724,0.0795
 8556,-0.07877775,0.16147520,-0.02542918,0.00712065,-0.03478284,-0.0008
 2164,-0.00030121,-0.00003787,-0.00005505,0.07208219,0.11429092,-0.4668
 6183,0.00981395,0.01344554,-0.02332138,0.00483680,-0.00002417,0.000100
 13,-0.00004423,-0.12836851,0.49051812,-0.03144338,0.03794983,-0.019281
 46,0.00570709,-0.02442012,0.00110094,0.00009739,-0.00002345,0.00009579
 ,0.02584648,-0.01464420,0.01753120,0.00001716,0.00000186,0.00012824,0.
 00000366,-0.00000001,-0.00002010,0.00014992,0.00000403,0.00010584,-0.0
 0001190,0.00000840,-0.00005244,0.40078021,-0.00001456,-0.00012678,0.00
 001965,0.00000614,0.00004672,0.00000165,-0.00001194,0.00024490,-0.0000
 2248,0.00004944,0.00003357,0.00003174,0.20246446,0.15314321,0.00018375
 ,0.00001900,-0.00010573,-0.00004062,-0.00003381,0.00002619,-0.00007801
 ,-0.00004926,-0.00057947,-0.00005588,0.00001495,0.00003534,0.08056843,
 0.02346187,0.02620228,-0.00011800,-0.00010286,0.00003913,0.00000245,0.
 00007260,-0.00006566,0.00005168,-0.00006808,0.00008692,0.00002278,0.00
 001814,-0.00000307,0.00186965,-0.04150412,0.01547766,0.04665376,-0.000
 07831,-0.00007473,-0.00010924,-0.00000457,0.00005809,-0.00001099,0.000
 01297,0.00008689,0.00010628,0.00002330,0.00001895,0.00005305,0.0087874
 2,-0.01988952,0.01080125,-0.03126706,0.45390141,0.00006108,-0.00013212
 ,-0.00003922,-0.00003920,0.00006957,-0.00001684,0.00000075,0.00019321,
 -0.00012779,-0.00001254,0.00001304,0.00003455,-0.00270802,-0.00829786,
 0.00291704,0.02866017,-0.17691614,0.07926199,-0.00036874,-0.00006082,-
 0.00004448,0.00010421,0.00000307,-0.00012192,-0.00000834,0.00002724,0.
 00001750,0.00019334,0.00005477,0.00003211,-0.00007696,0.00017653,0.000
 10221,-0.00027647,0.00010185,0.00013167,0.33422989,-0.00008512,-0.0003
 1732,0.00007608,0.00006580,0.00007711,-0.00010433,0.00001146,0.0000349
 2,-0.00000787,0.00001435,0.00017335,0.00019962,0.00021164,-0.00012924,
 -0.00007190,-0.00002836,0.00005309,-0.00007100,-0.22398969,0.15683738,
 -0.00044545,0.00031617,0.00066039,0.00001099,-0.00010728,-0.00017062,0
 .00001977,0.00000096,-0.00000708,0.00014005,0.00005291,-0.00055125,0.0
 0001194,0.00004845,0.00010064,0.00002209,-0.00005065,0.00010166,-0.114
 45530,0.09072661,0.09356173,0.00091102,0.00001176,-0.00098458,-0.00010
 090,0.00000298,0.00033910,0.00001231,-0.00005808,-0.00013634,-0.000310
 14,-0.00018260,0.00046132,0.00017319,0.00034282,-0.00003219,-0.0010243
 3,-0.00038845,0.00022332,-0.31436077,0.22047159,0.14501211,0.52657231,
 0.00004648,0.00087765,0.00042571,-0.00005486,-0.00026193,0.00015347,-0
 .00002371,-0.00008977,0.00001884,-0.00013888,-0.00020463,-0.00067300,0
 .00038288,-0.00107261,-0.00007365,-0.00033085,0.00011219,0.00007058,0.
 20803945,-0.15342791,-0.11131343,-0.27781837,0.18480786,-0.00002294,-0
 .00026353,-0.00167530,0.00010795,0.00026313,0.00011473,-0.00013397,0.0
 0005223,-0.00010269,0.00003893,-0.00027054,0.00061253,0.00018703,0.000
 00612,-0.00020801,0.00032871,-0.00020170,-0.00023013,0.09898016,-0.084
 52674,-0.10463349,0.09416310,0.06257715,0.45362618,0.00019066,0.000117
 78,-0.00041595,-0.00002039,-0.00001162,0.00013707,-0.00023093,0.000124
 71,-0.00057951,-0.00005854,-0.00007408,0.00011101,-0.40115434,-0.16165
 473,-0.09515203,-0.04884042,0.02186314,-0.02602905,-0.00002336,0.00016
 600,-0.00053447,-0.00473119,0.00409240,0.00099440,0.45994410,0.0000864
 9,0.00029840,0.00016394,0.00001729,-0.00019832,0.00002854,0.00002969,-
 0.00040376,-0.00006109,-0.00008210,-0.00002721,-0.00013692,-0.21077493
 ,-0.13416557,-0.03356229,0.07080148,-0.43354729,0.18397085,0.00030836,
 0.00060948,0.00022974,0.00382718,-0.00014395,-0.00076640,0.13813909,0.
 57288794,-0.00040019,0.00020919,0.00013688,0.00010904,0.00002579,-0.00
 001343,-0.00013451,-0.00016848,0.00060854,0.00006937,-0.00009800,-0.00
 012930,-0.07796087,-0.01496180,-0.02959165,-0.04398121,0.16577540,-0.0
 8235639,-0.00028490,0.00013229,0.00038760,-0.00012985,-0.00020124,0.00
 101697,0.12543471,-0.15223661,0.11771053,-0.00649269,0.00238930,-0.000
 05154,-0.00013534,0.00058509,0.00020002,-0.46678969,0.04655620,0.16863
 172,-0.00080946,-0.00059428,-0.00009117,-0.00015484,-0.00004020,0.0007
 5828,-0.00015429,-0.00010916,0.00010454,0.00001688,-0.00002113,-0.0001
 0754,0.00022539,0.00001960,0.00064868,0.00090527,0.00010921,-0.0008429
 2,0.63350486,0.00192938,0.00150698,0.00042031,0.00049793,-0.00076109,-
 0.00025508,0.06703049,-0.01637668,-0.00678946,-0.00065862,-0.00008207,
 0.00005365,0.00000010,-0.00044203,-0.00000121,-0.00001270,-0.00011496,
 -0.00038222,-0.00005349,-0.00010011,0.00008024,0.00008022,0.00048090,-
 0.00026784,-0.00010223,0.00078654,0.00074375,-0.16175064,0.11658565,0.
 00109228,0.00005164,0.00112666,0.00045729,-0.00013122,-0.00024525,0.11
 943977,0.00554947,-0.08926151,0.00000042,-0.00015400,-0.00021732,0.000
 17419,0.00000952,0.00069560,-0.00012571,-0.00030288,0.00002063,-0.0001
 3423,0.00005669,-0.00009723,0.00069429,-0.00016915,-0.00020378,0.00030
 819,0.00056701,-0.00157912,0.01087633,-0.16956306,0.41487992,0.0010485
 6,-0.00047767,-0.00193776,-0.00065135,-0.00046341,0.00002261,-0.019754
 22,0.01955631,-0.03574224,0.00025071,0.00073169,0.00017705,0.00000737,
 -0.00000078,-0.00022516,0.00008404,0.00005885,-0.00005416,0.00005767,-
 0.00000341,0.00016741,-0.00040251,0.00013140,-0.00028127,-0.00024219,-
 0.00004487,0.00051898,-0.14939311,0.09408399,-0.14004329,0.16665683,-0
 .00068841,-0.00327989,-0.00016631,-0.00088865,0.00072079,0.00058900,-0
 .00091046,-0.00222944,0.00515822,0.00153585,0.00004882,-0.00055008,-0.
 00001332,0.00004964,0.00012367,0.00001870,0.00002015,0.00000769,0.0000
 1561,0.00005361,-0.00006303,0.00003545,-0.00021365,0.00010052,0.000059
 67,-0.00002353,-0.00016580,0.11358572,-0.09870495,0.16276307,-0.112616
 69,0.10229616,-0.00138329,-0.00034056,-0.00159018,-0.00086483,0.000265
 26,0.00051660,0.01391242,-0.00719075,0.00878799,-0.00002564,0.00009499
 ,0.00020030,0.00000526,0.00005156,0.00002950,-0.00000143,-0.00001155,-
 0.00001928,0.00004191,0.00000390,-0.00003114,-0.00004250,-0.00007901,0
 .00019778,0.00007617,-0.00002010,-0.00016323,-0.18723524,0.17428978,-0
 .31437820,0.17553080,-0.16869398,0.30921526,-0.00017495,0.00009244,0.0
 0050408,0.00001605,-0.00004671,-0.00004914,0.00003813,-0.00001479,0.00
 016727,0.00005141,0.00005214,-0.00024068,-0.00100300,0.00021678,0.0004
 7771,0.00076444,0.00051095,-0.00031182,-0.01955061,0.00305682,-0.03069
 885,-0.20092813,0.06197999,-0.20040066,-0.00037478,-0.00213058,-0.0015
 1584,-0.00037685,0.00008270,-0.00029586,0.00022687,-0.00004287,-0.0000
 4196,0.21917388,0.00006083,-0.00008526,-0.00023483,-0.00001568,0.00008
 280,0.00004673,-0.00001173,0.00007481,-0.00005908,0.00002763,0.0000172
 5,0.00007133,-0.00051251,0.00123051,0.00038252,0.00103796,-0.00061348,
 -0.00053453,0.01541963,-0.00381873,0.02071561,0.05017076,-0.02511198,0
 .02858149,-0.00200963,-0.00208293,0.00129894,0.00013291,-0.00024573,0.
 00007164,-0.00009165,0.00007722,0.00005626,-0.06360884,0.02894318,0.00
 007692,-0.00002299,-0.00016856,0.00000697,0.00002124,-0.00001371,0.000
 02988,-0.00001801,-0.00003288,-0.00002716,-0.00003879,0.00001764,-0.00
 022941,0.00011135,0.00027113,-0.00064679,0.00029077,0.00043469,0.01566
 588,-0.00638525,0.01017322,-0.24432744,0.05448675,-0.33645264,-0.00097
 554,0.00102359,-0.00135909,0.00001048,0.00002696,0.00020439,-0.0000684
 6,0.00000179,-0.00002343,0.23137529,-0.04897146,0.33006400,0.00073117,
 0.00050512,-0.00045705,-0.00034633,-0.00063612,0.00063229,0.00015987,0
 .00012134,-0.00006182,0.00004238,-0.00013273,0.00003427,0.00016272,0.0
 0012421,-0.00006923,0.00029020,0.00038852,0.00105095,-0.00011987,-0.00
 017750,-0.00010804,0.00097227,0.00031046,0.00021586,-0.00038212,-0.001
 11602,-0.00104753,-0.00009679,-0.00114501,0.00052853,-0.00052218,0.000
 21299,-0.00003747,-0.00049582,0.00026805,0.00011339,0.38083708,-0.0000
 4921,-0.00131199,0.00070476,-0.00020930,0.00034766,-0.00075867,0.00011
 655,-0.00019645,0.00005441,-0.00001069,0.00014711,0.00019559,-0.000015
 41,0.00003320,-0.00012090,-0.00002166,-0.00048575,-0.00000633,-0.00015
 148,0.00007520,0.00002924,-0.00001753,-0.00069353,-0.00077053,-0.00056
 874,0.00007735,-0.00028533,-0.00083627,0.00008898,0.00035361,0.0002751
 8,0.00004912,-0.00018878,0.00022217,-0.00008492,0.00015506,0.06354254,
 0.43420636,-0.00021298,0.00122485,0.00058455,0.00042295,-0.00108943,0.
 00016911,-0.00020952,0.00001425,-0.00014800,0.00004149,-0.00010831,-0.
 00024984,0.00012846,0.00009633,-0.00025969,0.00107254,0.00040028,0.000
 36709,-0.00018007,0.00016124,-0.00013858,0.00007508,-0.00137041,0.0000
 3138,-0.00115684,-0.00085966,0.00031117,0.00089958,0.00085853,0.000311
 56,-0.00025862,-0.00043763,0.00003637,0.00012328,0.00048898,0.00014421
 ,-0.30569209,0.13612397,0.34267588,-0.00019303,-0.00029542,0.00009713,
 0.00003458,0.00032693,-0.00010301,-0.00009144,-0.00028890,0.00004360,0
 .00001217,0.00005261,-0.00000571,-0.00004175,-0.00004889,-0.00011209,0
 .00017784,-0.00016307,-0.00029452,-0.00002215,-0.00000543,-0.00001171,
 -0.00005107,-0.00023229,-0.00011390,-0.00033205,0.00016441,0.00032505,
 -0.00029455,0.00079358,-0.00003159,0.00030376,-0.00007275,0.00001100,0
 .00014215,0.00001915,0.00000573,-0.07193466,0.07490931,0.09547944,0.08
 200773,-0.00010100,0.00033523,0.00013032,0.00017864,-0.00030873,0.0000
 2144,-0.00015220,0.00001760,-0.00000804,-0.00000581,-0.00004124,0.0000
 0969,-0.00001752,0.00001315,-0.00004785,-0.00003946,0.00005041,-0.0000
 7992,-0.00002211,-0.00002633,-0.00003733,-0.00000507,-0.00004798,-0.00
 002061,0.00002055,0.00005138,0.00020506,0.00048456,0.00060815,-0.00000
 121,-0.00005554,-0.00023136,0.00003936,0.00002576,-0.00003182,-0.00001
 550,0.11332461,-0.29978916,-0.23562798,-0.10315480,0.29051119,0.000145
 21,-0.00008212,-0.00038130,-0.00017532,0.00024678,0.00023648,0.0001153
 7,0.00006185,0.00010615,-0.00001580,0.00003396,0.00000801,-0.00007600,
 -0.00004473,0.00004776,-0.00017702,-0.00026452,-0.00026062,-0.00000490
 ,-0.00005602,0.00002504,0.00000853,0.00017328,0.00006264,0.00017897,0.
 00034490,0.00011097,-0.00027010,-0.00042667,-0.00046410,0.00008629,0.0
 0030094,0.00006394,0.00003992,-0.00006349,-0.00000868,0.11281784,-0.20
 116610,-0.19527427,-0.11807906,0.22276654,0.20877350,-0.00023456,0.000
 13059,0.00008743,0.00022253,-0.00000098,-0.00012704,-0.00001322,-0.000
 01483,0.00001321,0.00002219,0.00004542,-0.00004215,-0.00003433,-0.0000
 5299,-0.00002048,-0.00035717,-0.00022584,-0.00015932,0.00017659,0.0001
 2603,0.00005962,-0.00049286,0.00025357,0.00001422,0.00025139,0.0003610
 2,0.00006956,0.00008036,0.00013352,-0.00004614,0.00002869,-0.00008746,
 0.00000485,0.00011524,-0.00023396,-0.00005059,-0.30373401,-0.13299008,
 0.20906333,-0.01100533,-0.01121717,0.00547011,0.31499152,0.00029977,0.
 00006123,-0.00036340,-0.00015100,-0.00007684,0.00028396,-0.00000081,-0
 .00004897,0.00002437,0.00000977,-0.00007367,0.00009604,0.00000747,0.00
 001084,-0.00000162,-0.00005669,0.00011565,0.00003550,-0.00001535,-0.00
 022730,-0.00007490,0.00056532,0.00068909,0.00022432,0.00014886,-0.0000
 9997,-0.00010949,-0.00009910,-0.00015593,0.00005751,-0.00010047,0.0000
 7179,0.00001248,-0.00024537,0.00001721,-0.00005654,-0.17140539,-0.1186
 2028,0.10129798,0.02860494,0.01004198,-0.02141945,0.14441994,0.1084313
 3,-0.00009052,-0.00036983,0.00000156,0.00006623,0.00034158,-0.00017727
 ,0.00003355,0.00003135,0.00003823,-0.00002382,0.00007047,0.00007002,-0
 .00003674,-0.00001536,0.00000312,-0.00034447,-0.00008295,0.00020329,0.
 00004089,-0.00016627,0.00008218,0.00018829,0.00067387,-0.00034953,0.00
 022208,0.00001885,-0.00038776,-0.00012953,-0.00015268,0.00004257,0.000
 06120,0.00002310,0.00000060,-0.00018225,-0.00029292,0.00000393,0.19164
 777,0.06687386,-0.14466934,0.02346912,0.01423690,-0.01380441,-0.214814
 42,-0.08134582,0.15789479,-0.00430023,0.00008556,-0.00001543,-0.000253
 95,0.00048051,-0.00184092,-0.00015265,-0.00010155,0.00099580,0.0004712
 0,0.00067675,-0.00058812,-0.00068674,-0.00005216,-0.00178234,0.0008538
 4,0.00048946,-0.00062384,0.00002869,0.00018696,0.00091738,-0.00646458,
 0.00334272,0.00527369,-0.00490108,0.00030426,-0.00022890,-0.01003514,-
 0.00090924,0.00710554,0.00230107,-0.00014341,0.00004994,0.00237597,-0.
 00065292,-0.00095916,-0.00556390,-0.00419539,0.00040398,0.00128780,0.0
 0073655,-0.00006404,-0.00001702,-0.00198189,-0.00010738,0.02505672,0.0
 0112134,-0.00463942,0.00035739,-0.00063314,0.00169298,-0.00077161,0.00
 006917,0.00031299,-0.00028275,0.00094979,-0.00044527,0.00178722,-0.000
 53455,0.00102000,-0.00084077,0.00148298,0.00030891,0.00205967,0.000146
 43,0.00013281,-0.00055331,0.00296200,-0.00569973,-0.00471708,-0.000311
 18,-0.00401856,-0.00016367,-0.00041182,-0.00307363,0.00084135,-0.00098
 293,0.00129551,0.00171113,-0.00015061,0.00163188,-0.00060897,-0.004185
 08,-0.01384289,-0.00117297,-0.00060939,-0.00115246,-0.00040514,-0.0006
 4679,-0.00013615,0.00015584,0.00173378,0.02661303,-0.00262365,0.000950
 19,-0.00469090,-0.00070841,0.00018629,-0.00056804,0.00009874,-0.000214
 54,0.00053827,0.00032996,0.00042699,0.00072285,-0.00022583,-0.00049600
 ,0.00041596,-0.00034185,0.00052360,-0.00029068,0.00021348,0.00003295,0
 .00053693,0.00448777,-0.00469978,-0.01180663,-0.00261920,0.00129563,-0
 .00470269,0.00659843,0.00136501,-0.01083482,0.00204661,0.00100882,-0.0
 0284288,0.00104949,-0.00155718,-0.00325423,0.00043234,-0.00119386,-0.0
 0389160,-0.00067948,-0.00157086,0.00075890,0.00047781,0.00133906,0.001
 04801,-0.00853621,0.00260368,0.03886156\\0.00000270,-0.00000091,-0.000
 00091,0.00000003,-0.00000091,-0.00000130,0.00000045,-0.00000044,0.0000
 0081,0.00000059,0.00000069,-0.00000086,-0.00000192,-0.00000048,0.00000
 049,-0.00000080,0.00000185,0.00000003,-0.00000053,0.00000021,-0.000000
 87,-0.00000191,0.00000040,-0.00000172,-0.00000025,0.00000006,0.0000026
 0,0.00000210,-0.00000042,0.00000078,0.00000097,-0.00000028,0.00000013,
 -0.00000087,0.00000020,-0.00000040,0.00000228,0.00000305,-0.00000039,0
 .00000105,-0.00000226,-0.00000201,-0.00000282,-0.00000100,0.00000135,-
 0.00000108,0.00000024,0.00000226\\\@


 THOSE WHO ARE UNABLE TO LEARN FROM PAST MEETINGS
 ARE CONDEMNED TO REPEAT THEM.
 Job cpu time:       0 days  1 hours  3 minutes 27.4 seconds.
 Elapsed time:       0 days  0 hours  1 minutes 36.7 seconds.
 File lengths (MBytes):  RWF=     88 Int=      0 D2E=      0 Chk=      6 Scr=      1
 Normal termination of Gaussian 16 at Mon Jul 18 21:03:48 2022.
